title="Starting Config"
 variables = x, y, vx, vy, mass, rho, mu, Temp, surf_normx, surf_normy
ZONE T="Real Particles",F=Point,C=Blue
      0.1250000000E-02        0.1250000000E-02        0.0000000000E+00        0.0000000000E+00        0.6365279901E-02        0.1018444784E+04        0.1000000000E+01        0.3000000000E+03        0.0000000000E+00
      0.0000000000E+00
      0.1250000000E-02        0.3750000000E-02        0.0000000000E+00        0.0000000000E+00        0.6363905399E-02        0.1018224864E+04        0.1000000000E+01        0.3000000000E+03        0.0000000000E+00
      0.0000000000E+00
      0.1250000000E-02        0.6250000000E-02        0.0000000000E+00        0.0000000000E+00        0.6362529113E-02        0.1018004658E+04        0.1000000000E+01        0.3000000000E+03        0.0000000000E+00
      0.0000000000E+00
      0.1250000000E-02        0.8750000000E-02        0.0000000000E+00        0.0000000000E+00        0.6361151039E-02        0.1017784166E+04        0.1000000000E+01        0.3000000000E+03        0.0000000000E+00
      0.0000000000E+00
      0.1250000000E-02        0.1125000000E-01        0.0000000000E+00        0.0000000000E+00        0.6359771171E-02        0.1017563387E+04        0.1000000000E+01        0.3000000000E+03        0.0000000000E+00
      0.0000000000E+00
      0.1250000000E-02        0.1625000000E-01        0.0000000000E+00        0.0000000000E+00        0.6357006034E-02        0.1017120965E+04        0.1000000000E+01        0.3000000000E+03        0.0000000000E+00
      0.0000000000E+00
      0.1250000000E-02        0.2125000000E-01        0.0000000000E+00        0.0000000000E+00        0.6354233662E-02        0.1016677386E+04        0.1000000000E+01        0.3000000000E+03        0.0000000000E+00
      0.0000000000E+00
      0.1250000000E-02        0.1375000000E-01        0.0000000000E+00        0.0000000000E+00        0.6358389504E-02        0.1017342321E+04        0.1000000000E+01        0.3000000000E+03        0.0000000000E+00
      0.0000000000E+00
      0.1250000000E-02        0.1875000000E-01        0.0000000000E+00        0.0000000000E+00        0.6355620755E-02        0.1016899321E+04        0.1000000000E+01        0.3000000000E+03        0.0000000000E+00
      0.0000000000E+00
      0.1250000000E-02        0.2625000000E-01        0.0000000000E+00        0.0000000000E+00        0.6351454013E-02        0.1016232642E+04        0.1000000000E+01        0.3000000000E+03        0.0000000000E+00
      0.0000000000E+00
      0.1250000000E-02        0.2375000000E-01        0.0000000000E+00        0.0000000000E+00        0.6352844749E-02        0.1016455160E+04        0.1000000000E+01        0.3000000000E+03        0.0000000000E+00
      0.0000000000E+00
      0.1250000000E-02        0.2875000000E-01        0.0000000000E+00        0.0000000000E+00        0.6350061447E-02        0.1016009831E+04        0.1000000000E+01        0.3000000000E+03        0.0000000000E+00
      0.0000000000E+00
      0.1250000000E-02        0.3125000000E-01        0.0000000000E+00        0.0000000000E+00        0.6348667046E-02        0.1015786727E+04        0.1000000000E+01        0.3000000000E+03        0.0000000000E+00
      0.0000000000E+00
      0.1250000000E-02        0.3625000000E-01        0.0000000000E+00        0.0000000000E+00        0.6345872719E-02        0.1015339635E+04        0.1000000000E+01        0.3000000000E+03        0.0000000000E+00
      0.0000000000E+00
      0.1250000000E-02        0.3875000000E-01        0.0000000000E+00        0.0000000000E+00        0.6344472782E-02        0.1015115645E+04        0.1000000000E+01        0.3000000000E+03        0.0000000000E+00
      0.0000000000E+00
      0.1250000000E-02        0.4125000000E-01        0.0000000000E+00        0.0000000000E+00        0.6343070989E-02        0.1014891358E+04        0.1000000000E+01        0.3000000000E+03        0.0000000000E+00
      0.0000000000E+00
      0.1250000000E-02        0.5125000000E-01        0.0000000000E+00        0.0000000000E+00        0.6337445153E-02        0.1013991224E+04        0.1000000000E+01        0.3000000000E+03        0.0000000000E+00
      0.0000000000E+00
      0.1250000000E-02        0.4625000000E-01        0.0000000000E+00        0.0000000000E+00        0.6340261815E-02        0.1014441890E+04        0.1000000000E+01        0.3000000000E+03        0.0000000000E+00
      0.0000000000E+00
      0.1250000000E-02        0.4875000000E-01        0.0000000000E+00        0.0000000000E+00        0.6338854423E-02        0.1014216708E+04        0.1000000000E+01        0.3000000000E+03        0.0000000000E+00
      0.0000000000E+00
      0.1250000000E-02        0.3375000000E-01        0.0000000000E+00        0.0000000000E+00        0.6347270805E-02        0.1015563329E+04        0.1000000000E+01        0.3000000000E+03        0.0000000000E+00
      0.0000000000E+00
      0.1250000000E-02        0.4375000000E-01        0.0000000000E+00        0.0000000000E+00        0.6341667335E-02        0.1014666774E+04        0.1000000000E+01        0.3000000000E+03        0.0000000000E+00
      0.0000000000E+00
      0.1250000000E-02        0.5875000000E-01        0.0000000000E+00        0.0000000000E+00        0.6333206025E-02        0.1013312964E+04        0.1000000000E+01        0.3000000000E+03        0.0000000000E+00
      0.0000000000E+00
      0.1250000000E-02        0.5375000000E-01        0.0000000000E+00        0.0000000000E+00        0.6336034000E-02        0.1013765440E+04        0.1000000000E+01        0.3000000000E+03        0.0000000000E+00
      0.0000000000E+00
      0.1250000000E-02        0.6375000000E-01        0.0000000000E+00        0.0000000000E+00        0.6330370453E-02        0.1012859272E+04        0.1000000000E+01        0.3000000000E+03        0.0000000000E+00
      0.0000000000E+00
      0.1250000000E-02        0.6875000000E-01        0.0000000000E+00        0.0000000000E+00        0.6327527239E-02        0.1012404358E+04        0.1000000000E+01        0.3000000000E+03        0.0000000000E+00
      0.0000000000E+00
      0.1250000000E-02        0.5625000000E-01        0.0000000000E+00        0.0000000000E+00        0.6334620960E-02        0.1013539354E+04        0.1000000000E+01        0.3000000000E+03        0.0000000000E+00
      0.0000000000E+00
      0.1250000000E-02        0.6125000000E-01        0.0000000000E+00        0.0000000000E+00        0.6331789191E-02        0.1013086271E+04        0.1000000000E+01        0.3000000000E+03        0.0000000000E+00
      0.0000000000E+00
      0.1250000000E-02        0.7375000000E-01        0.0000000000E+00        0.0000000000E+00        0.6324676339E-02        0.1011948214E+04        0.1000000000E+01        0.3000000000E+03        0.0000000000E+00
      0.0000000000E+00
      0.1250000000E-02        0.6625000000E-01        0.0000000000E+00        0.0000000000E+00        0.6328949804E-02        0.1012631969E+04        0.1000000000E+01        0.3000000000E+03        0.0000000000E+00
      0.0000000000E+00
      0.1250000000E-02        0.7875000000E-01        0.0000000000E+00        0.0000000000E+00        0.6321817708E-02        0.1011490833E+04        0.1000000000E+01        0.3000000000E+03        0.0000000000E+00
      0.0000000000E+00
      0.1250000000E-02        0.7125000000E-01        0.0000000000E+00        0.0000000000E+00        0.6326102753E-02        0.1012176440E+04        0.1000000000E+01        0.3000000000E+03        0.0000000000E+00
      0.0000000000E+00
      0.1250000000E-02        0.8125000000E-01        0.0000000000E+00        0.0000000000E+00        0.6320385479E-02        0.1011261677E+04        0.1000000000E+01        0.3000000000E+03        0.0000000000E+00
      0.0000000000E+00
      0.1250000000E-02        0.8625000000E-01        0.0000000000E+00        0.0000000000E+00        0.6317515165E-02        0.1010802426E+04        0.1000000000E+01        0.3000000000E+03        0.0000000000E+00
      0.0000000000E+00
      0.1250000000E-02        0.8875000000E-01        0.0000000000E+00        0.0000000000E+00        0.6316077069E-02        0.1010572331E+04        0.1000000000E+01        0.3000000000E+03        0.0000000000E+00
      0.0000000000E+00
      0.1250000000E-02        0.8375000000E-01        0.0000000000E+00        0.0000000000E+00        0.6318951300E-02        0.1011032208E+04        0.1000000000E+01        0.3000000000E+03        0.0000000000E+00
      0.0000000000E+00
      0.1250000000E-02        0.9375000000E-01        0.0000000000E+00        0.0000000000E+00        0.6313194969E-02        0.1010111195E+04        0.1000000000E+01        0.3000000000E+03        0.0000000000E+00
      0.0000000000E+00
      0.1250000000E-02        0.9125000000E-01        0.0000000000E+00        0.0000000000E+00        0.6314637005E-02        0.1010341921E+04        0.1000000000E+01        0.3000000000E+03        0.0000000000E+00
      0.0000000000E+00
      0.1250000000E-02        0.7625000000E-01        0.0000000000E+00        0.0000000000E+00        0.6323247993E-02        0.1011719679E+04        0.1000000000E+01        0.3000000000E+03        0.0000000000E+00
      0.0000000000E+00
      0.1250000000E-02        0.1012500000E+00        0.0000000000E+00        0.0000000000E+00        0.6308856961E-02        0.1009417114E+04        0.1000000000E+01        0.3000000000E+03        0.0000000000E+00
      0.0000000000E+00
      0.1250000000E-02        0.1037500000E+00        0.0000000000E+00        0.0000000000E+00        0.6307406972E-02        0.1009185116E+04        0.1000000000E+01        0.3000000000E+03        0.0000000000E+00
      0.0000000000E+00
      0.1250000000E-02        0.9875000000E-01        0.0000000000E+00        0.0000000000E+00        0.6310304952E-02        0.1009648792E+04        0.1000000000E+01        0.3000000000E+03        0.0000000000E+00
      0.0000000000E+00
      0.1250000000E-02        0.9625000000E-01        0.0000000000E+00        0.0000000000E+00        0.6311750953E-02        0.1009880152E+04        0.1000000000E+01        0.3000000000E+03        0.0000000000E+00
      0.0000000000E+00
      0.1250000000E-02        0.1112500000E+00        0.0000000000E+00        0.0000000000E+00        0.6303044967E-02        0.1008487195E+04        0.1000000000E+01        0.3000000000E+03        0.0000000000E+00
      0.0000000000E+00
      0.1250000000E-02        0.1087500000E+00        0.0000000000E+00        0.0000000000E+00        0.6304500982E-02        0.1008720157E+04        0.1000000000E+01        0.3000000000E+03        0.0000000000E+00
      0.0000000000E+00
      0.1250000000E-02        0.1262500000E+00        0.0000000000E+00        0.0000000000E+00        0.6294266228E-02        0.1007082596E+04        0.1000000000E+01        0.3000000000E+03        0.0000000000E+00
      0.0000000000E+00
      0.1250000000E-02        0.1187500000E+00        0.0000000000E+00        0.0000000000E+00        0.6298664774E-02        0.1007786364E+04        0.1000000000E+01        0.3000000000E+03        0.0000000000E+00
      0.0000000000E+00
      0.1250000000E-02        0.1312500000E+00        0.0000000000E+00        0.0000000000E+00        0.6291323585E-02        0.1006611774E+04        0.1000000000E+01        0.3000000000E+03        0.0000000000E+00
      0.0000000000E+00
      0.1250000000E-02        0.1212500000E+00        0.0000000000E+00        0.0000000000E+00        0.6297200639E-02        0.1007552102E+04        0.1000000000E+01        0.3000000000E+03        0.0000000000E+00
      0.0000000000E+00
      0.1250000000E-02        0.1062500000E+00        0.0000000000E+00        0.0000000000E+00        0.6305954981E-02        0.1008952797E+04        0.1000000000E+01        0.3000000000E+03        0.0000000000E+00
      0.0000000000E+00
      0.1250000000E-02        0.1237500000E+00        0.0000000000E+00        0.0000000000E+00        0.6295734459E-02        0.1007317513E+04        0.1000000000E+01        0.3000000000E+03        0.0000000000E+00
      0.0000000000E+00
      0.1250000000E-02        0.1137500000E+00        0.0000000000E+00        0.0000000000E+00        0.6301586932E-02        0.1008253909E+04        0.1000000000E+01        0.3000000000E+03        0.0000000000E+00
      0.0000000000E+00
      0.1250000000E-02        0.1162500000E+00        0.0000000000E+00        0.0000000000E+00        0.6300126869E-02        0.1008020299E+04        0.1000000000E+01        0.3000000000E+03        0.0000000000E+00
      0.0000000000E+00
      0.1250000000E-02        0.1337500000E+00        0.0000000000E+00        0.0000000000E+00        0.6289849161E-02        0.1006375866E+04        0.1000000000E+01        0.3000000000E+03        0.0000000000E+00
      0.0000000000E+00
      0.1250000000E-02        0.1287500000E+00        0.0000000000E+00        0.0000000000E+00        0.6292795938E-02        0.1006847350E+04        0.1000000000E+01        0.3000000000E+03        0.0000000000E+00
      0.0000000000E+00
      0.1250000000E-02        0.1387500000E+00        0.0000000000E+00        0.0000000000E+00        0.6286894077E-02        0.1005903052E+04        0.1000000000E+01        0.3000000000E+03        0.0000000000E+00
      0.0000000000E+00
      0.1250000000E-02        0.1362500000E+00        0.0000000000E+00        0.0000000000E+00        0.6288372661E-02        0.1006139626E+04        0.1000000000E+01        0.3000000000E+03        0.0000000000E+00
      0.0000000000E+00
      0.1250000000E-02        0.1412500000E+00        0.0000000000E+00        0.0000000000E+00        0.6285413404E-02        0.1005666145E+04        0.1000000000E+01        0.3000000000E+03        0.0000000000E+00
      0.0000000000E+00
      0.1250000000E-02        0.1437500000E+00        0.0000000000E+00        0.0000000000E+00        0.6283930636E-02        0.1005428902E+04        0.1000000000E+01        0.3000000000E+03        0.0000000000E+00
      0.0000000000E+00
      0.1250000000E-02        0.1487500000E+00        0.0000000000E+00        0.0000000000E+00        0.6280958785E-02        0.1004953406E+04        0.1000000000E+01        0.3000000000E+03        0.0000000000E+00
      0.0000000000E+00
      0.1250000000E-02        0.1462500000E+00        0.0000000000E+00        0.0000000000E+00        0.6282445765E-02        0.1005191322E+04        0.1000000000E+01        0.3000000000E+03        0.0000000000E+00
      0.0000000000E+00
      0.1250000000E-02        0.1512500000E+00        0.0000000000E+00        0.0000000000E+00        0.6279469690E-02        0.1004715150E+04        0.1000000000E+01        0.3000000000E+03        0.0000000000E+00
      0.0000000000E+00
      0.1250000000E-02        0.1537500000E+00        0.0000000000E+00        0.0000000000E+00        0.6277978474E-02        0.1004476556E+04        0.1000000000E+01        0.3000000000E+03        0.0000000000E+00
      0.0000000000E+00
      0.1250000000E-02        0.1562500000E+00        0.0000000000E+00        0.0000000000E+00        0.6276485129E-02        0.1004237621E+04        0.1000000000E+01        0.3000000000E+03        0.0000000000E+00
      0.0000000000E+00
      0.1250000000E-02        0.1587500000E+00        0.0000000000E+00        0.0000000000E+00        0.6274989649E-02        0.1003998344E+04        0.1000000000E+01        0.3000000000E+03        0.0000000000E+00
      0.0000000000E+00
      0.1250000000E-02        0.1662500000E+00        0.0000000000E+00        0.0000000000E+00        0.6270490334E-02        0.1003278453E+04        0.1000000000E+01        0.3000000000E+03        0.0000000000E+00
      0.0000000000E+00
      0.1250000000E-02        0.1612500000E+00        0.0000000000E+00        0.0000000000E+00        0.6273492028E-02        0.1003758724E+04        0.1000000000E+01        0.3000000000E+03        0.0000000000E+00
      0.0000000000E+00
      0.1250000000E-02        0.1637500000E+00        0.0000000000E+00        0.0000000000E+00        0.6271992258E-02        0.1003518761E+04        0.1000000000E+01        0.3000000000E+03        0.0000000000E+00
      0.0000000000E+00
      0.1250000000E-02        0.1712500000E+00        0.0000000000E+00        0.0000000000E+00        0.6267479994E-02        0.1002796799E+04        0.1000000000E+01        0.3000000000E+03        0.0000000000E+00
      0.0000000000E+00
      0.1250000000E-02        0.1737500000E+00        0.0000000000E+00        0.0000000000E+00        0.6265971565E-02        0.1002555450E+04        0.1000000000E+01        0.3000000000E+03        0.0000000000E+00
      0.0000000000E+00
      0.1250000000E-02        0.1787500000E+00        0.0000000000E+00        0.0000000000E+00        0.6262948154E-02        0.1002071705E+04        0.1000000000E+01        0.3000000000E+03        0.0000000000E+00
      0.0000000000E+00
      0.1250000000E-02        0.1762500000E+00        0.0000000000E+00        0.0000000000E+00        0.6264460954E-02        0.1002313753E+04        0.1000000000E+01        0.3000000000E+03        0.0000000000E+00
      0.0000000000E+00
      0.1250000000E-02        0.1687500000E+00        0.0000000000E+00        0.0000000000E+00        0.6268986248E-02        0.1003037800E+04        0.1000000000E+01        0.3000000000E+03        0.0000000000E+00
      0.0000000000E+00
      0.1250000000E-02        0.1862500000E+00        0.0000000000E+00        0.0000000000E+00        0.6258396552E-02        0.1001343448E+04        0.1000000000E+01        0.3000000000E+03        0.0000000000E+00
      0.0000000000E+00
      0.1250000000E-02        0.1837500000E+00        0.0000000000E+00        0.0000000000E+00        0.6259915960E-02        0.1001586554E+04        0.1000000000E+01        0.3000000000E+03        0.0000000000E+00
      0.0000000000E+00
      0.1250000000E-02        0.1812500000E+00        0.0000000000E+00        0.0000000000E+00        0.6261433158E-02        0.1001829305E+04        0.1000000000E+01        0.3000000000E+03        0.0000000000E+00
      0.0000000000E+00
      0.1250000000E-02        0.1912500000E+00        0.0000000000E+00        0.0000000000E+00        0.6255351080E-02        0.1000856173E+04        0.1000000000E+01        0.3000000000E+03        0.0000000000E+00
      0.0000000000E+00
      0.1250000000E-02        0.1887500000E+00        0.0000000000E+00        0.0000000000E+00        0.6256874928E-02        0.1001099988E+04        0.1000000000E+01        0.3000000000E+03        0.0000000000E+00
      0.0000000000E+00
      0.1250000000E-02        0.1962500000E+00        0.0000000000E+00        0.0000000000E+00        0.6252296685E-02        0.1000367470E+04        0.1000000000E+01        0.3000000000E+03        0.0000000000E+00
      0.0000000000E+00
      0.1250000000E-02        0.1987500000E+00        0.0000000000E+00        0.0000000000E+00        0.6250766124E-02        0.1000122580E+04        0.1000000000E+01        0.3000000000E+03        0.0000000000E+00
      0.0000000000E+00
      0.1250000000E-02        0.1937500000E+00        0.0000000000E+00        0.0000000000E+00        0.6253825001E-02        0.1000612000E+04        0.1000000000E+01        0.3000000000E+03        0.0000000000E+00
      0.0000000000E+00
      0.3750000000E-02        0.1250000000E-02        0.0000000000E+00        0.0000000000E+00        0.6365279901E-02        0.1018444784E+04        0.1000000000E+01        0.3000000000E+03        0.0000000000E+00
      0.0000000000E+00
      0.3750000000E-02        0.3750000000E-02        0.0000000000E+00        0.0000000000E+00        0.6363905399E-02        0.1018224864E+04        0.1000000000E+01        0.3000000000E+03        0.0000000000E+00
      0.0000000000E+00
      0.3750000000E-02        0.1125000000E-01        0.0000000000E+00        0.0000000000E+00        0.6359771171E-02        0.1017563387E+04        0.1000000000E+01        0.3000000000E+03        0.0000000000E+00
      0.0000000000E+00
      0.3750000000E-02        0.6250000000E-02        0.0000000000E+00        0.0000000000E+00        0.6362529113E-02        0.1018004658E+04        0.1000000000E+01        0.3000000000E+03        0.0000000000E+00
      0.0000000000E+00
      0.3750000000E-02        0.8750000000E-02        0.0000000000E+00        0.0000000000E+00        0.6361151039E-02        0.1017784166E+04        0.1000000000E+01        0.3000000000E+03        0.0000000000E+00
      0.0000000000E+00
      0.3750000000E-02        0.1375000000E-01        0.0000000000E+00        0.0000000000E+00        0.6358389504E-02        0.1017342321E+04        0.1000000000E+01        0.3000000000E+03        0.0000000000E+00
      0.0000000000E+00
      0.3750000000E-02        0.2125000000E-01        0.0000000000E+00        0.0000000000E+00        0.6354233662E-02        0.1016677386E+04        0.1000000000E+01        0.3000000000E+03        0.0000000000E+00
      0.0000000000E+00
      0.3750000000E-02        0.1875000000E-01        0.0000000000E+00        0.0000000000E+00        0.6355620755E-02        0.1016899321E+04        0.1000000000E+01        0.3000000000E+03        0.0000000000E+00
      0.0000000000E+00
      0.3750000000E-02        0.1625000000E-01        0.0000000000E+00        0.0000000000E+00        0.6357006034E-02        0.1017120965E+04        0.1000000000E+01        0.3000000000E+03        0.0000000000E+00
      0.0000000000E+00
      0.3750000000E-02        0.2375000000E-01        0.0000000000E+00        0.0000000000E+00        0.6352844749E-02        0.1016455160E+04        0.1000000000E+01        0.3000000000E+03        0.0000000000E+00
      0.0000000000E+00
      0.3750000000E-02        0.2625000000E-01        0.0000000000E+00        0.0000000000E+00        0.6351454013E-02        0.1016232642E+04        0.1000000000E+01        0.3000000000E+03        0.0000000000E+00
      0.0000000000E+00
      0.3750000000E-02        0.2875000000E-01        0.0000000000E+00        0.0000000000E+00        0.6350061447E-02        0.1016009831E+04        0.1000000000E+01        0.3000000000E+03        0.0000000000E+00
      0.0000000000E+00
      0.3750000000E-02        0.3125000000E-01        0.0000000000E+00        0.0000000000E+00        0.6348667046E-02        0.1015786727E+04        0.1000000000E+01        0.3000000000E+03        0.0000000000E+00
      0.0000000000E+00
      0.3750000000E-02        0.3625000000E-01        0.0000000000E+00        0.0000000000E+00        0.6345872719E-02        0.1015339635E+04        0.1000000000E+01        0.3000000000E+03        0.0000000000E+00
      0.0000000000E+00
      0.3750000000E-02        0.3375000000E-01        0.0000000000E+00        0.0000000000E+00        0.6347270805E-02        0.1015563329E+04        0.1000000000E+01        0.3000000000E+03        0.0000000000E+00
      0.0000000000E+00
      0.3750000000E-02        0.4125000000E-01        0.0000000000E+00        0.0000000000E+00        0.6343070989E-02        0.1014891358E+04        0.1000000000E+01        0.3000000000E+03        0.0000000000E+00
      0.0000000000E+00
      0.3750000000E-02        0.4375000000E-01        0.0000000000E+00        0.0000000000E+00        0.6341667335E-02        0.1014666774E+04        0.1000000000E+01        0.3000000000E+03        0.0000000000E+00
      0.0000000000E+00
      0.3750000000E-02        0.3875000000E-01        0.0000000000E+00        0.0000000000E+00        0.6344472782E-02        0.1015115645E+04        0.1000000000E+01        0.3000000000E+03        0.0000000000E+00
      0.0000000000E+00
      0.3750000000E-02        0.5125000000E-01        0.0000000000E+00        0.0000000000E+00        0.6337445153E-02        0.1013991224E+04        0.1000000000E+01        0.3000000000E+03        0.0000000000E+00
      0.0000000000E+00
      0.3750000000E-02        0.4875000000E-01        0.0000000000E+00        0.0000000000E+00        0.6338854423E-02        0.1014216708E+04        0.1000000000E+01        0.3000000000E+03        0.0000000000E+00
      0.0000000000E+00
      0.3750000000E-02        0.5375000000E-01        0.0000000000E+00        0.0000000000E+00        0.6336034000E-02        0.1013765440E+04        0.1000000000E+01        0.3000000000E+03        0.0000000000E+00
      0.0000000000E+00
      0.3750000000E-02        0.5625000000E-01        0.0000000000E+00        0.0000000000E+00        0.6334620960E-02        0.1013539354E+04        0.1000000000E+01        0.3000000000E+03        0.0000000000E+00
      0.0000000000E+00
      0.3750000000E-02        0.4625000000E-01        0.0000000000E+00        0.0000000000E+00        0.6340261815E-02        0.1014441890E+04        0.1000000000E+01        0.3000000000E+03        0.0000000000E+00
      0.0000000000E+00
      0.3750000000E-02        0.5875000000E-01        0.0000000000E+00        0.0000000000E+00        0.6333206025E-02        0.1013312964E+04        0.1000000000E+01        0.3000000000E+03        0.0000000000E+00
      0.0000000000E+00
      0.3750000000E-02        0.6625000000E-01        0.0000000000E+00        0.0000000000E+00        0.6328949804E-02        0.1012631969E+04        0.1000000000E+01        0.3000000000E+03        0.0000000000E+00
      0.0000000000E+00
      0.3750000000E-02        0.6375000000E-01        0.0000000000E+00        0.0000000000E+00        0.6330370453E-02        0.1012859272E+04        0.1000000000E+01        0.3000000000E+03        0.0000000000E+00
      0.0000000000E+00
      0.3750000000E-02        0.6125000000E-01        0.0000000000E+00        0.0000000000E+00        0.6331789191E-02        0.1013086271E+04        0.1000000000E+01        0.3000000000E+03        0.0000000000E+00
      0.0000000000E+00
      0.3750000000E-02        0.6875000000E-01        0.0000000000E+00        0.0000000000E+00        0.6327527239E-02        0.1012404358E+04        0.1000000000E+01        0.3000000000E+03        0.0000000000E+00
      0.0000000000E+00
      0.3750000000E-02        0.7125000000E-01        0.0000000000E+00        0.0000000000E+00        0.6326102753E-02        0.1012176440E+04        0.1000000000E+01        0.3000000000E+03        0.0000000000E+00
      0.0000000000E+00
      0.3750000000E-02        0.7625000000E-01        0.0000000000E+00        0.0000000000E+00        0.6323247993E-02        0.1011719679E+04        0.1000000000E+01        0.3000000000E+03        0.0000000000E+00
      0.0000000000E+00
      0.3750000000E-02        0.8125000000E-01        0.0000000000E+00        0.0000000000E+00        0.6320385479E-02        0.1011261677E+04        0.1000000000E+01        0.3000000000E+03        0.0000000000E+00
      0.0000000000E+00
      0.3750000000E-02        0.7875000000E-01        0.0000000000E+00        0.0000000000E+00        0.6321817708E-02        0.1011490833E+04        0.1000000000E+01        0.3000000000E+03        0.0000000000E+00
      0.0000000000E+00
      0.3750000000E-02        0.8375000000E-01        0.0000000000E+00        0.0000000000E+00        0.6318951300E-02        0.1011032208E+04        0.1000000000E+01        0.3000000000E+03        0.0000000000E+00
      0.0000000000E+00
      0.3750000000E-02        0.7375000000E-01        0.0000000000E+00        0.0000000000E+00        0.6324676339E-02        0.1011948214E+04        0.1000000000E+01        0.3000000000E+03        0.0000000000E+00
      0.0000000000E+00
      0.3750000000E-02        0.8875000000E-01        0.0000000000E+00        0.0000000000E+00        0.6316077069E-02        0.1010572331E+04        0.1000000000E+01        0.3000000000E+03        0.0000000000E+00
      0.0000000000E+00
      0.3750000000E-02        0.8625000000E-01        0.0000000000E+00        0.0000000000E+00        0.6317515165E-02        0.1010802426E+04        0.1000000000E+01        0.3000000000E+03        0.0000000000E+00
      0.0000000000E+00
      0.3750000000E-02        0.9375000000E-01        0.0000000000E+00        0.0000000000E+00        0.6313194969E-02        0.1010111195E+04        0.1000000000E+01        0.3000000000E+03        0.0000000000E+00
      0.0000000000E+00
      0.3750000000E-02        0.1012500000E+00        0.0000000000E+00        0.0000000000E+00        0.6308856961E-02        0.1009417114E+04        0.1000000000E+01        0.3000000000E+03        0.0000000000E+00
      0.0000000000E+00
      0.3750000000E-02        0.9125000000E-01        0.0000000000E+00        0.0000000000E+00        0.6314637005E-02        0.1010341921E+04        0.1000000000E+01        0.3000000000E+03        0.0000000000E+00
      0.0000000000E+00
      0.3750000000E-02        0.9875000000E-01        0.0000000000E+00        0.0000000000E+00        0.6310304952E-02        0.1009648792E+04        0.1000000000E+01        0.3000000000E+03        0.0000000000E+00
      0.0000000000E+00
      0.3750000000E-02        0.9625000000E-01        0.0000000000E+00        0.0000000000E+00        0.6311750953E-02        0.1009880152E+04        0.1000000000E+01        0.3000000000E+03        0.0000000000E+00
      0.0000000000E+00
      0.3750000000E-02        0.1087500000E+00        0.0000000000E+00        0.0000000000E+00        0.6304500982E-02        0.1008720157E+04        0.1000000000E+01        0.3000000000E+03        0.0000000000E+00
      0.0000000000E+00
      0.3750000000E-02        0.1037500000E+00        0.0000000000E+00        0.0000000000E+00        0.6307406972E-02        0.1009185116E+04        0.1000000000E+01        0.3000000000E+03        0.0000000000E+00
      0.0000000000E+00
      0.3750000000E-02        0.1062500000E+00        0.0000000000E+00        0.0000000000E+00        0.6305954981E-02        0.1008952797E+04        0.1000000000E+01        0.3000000000E+03        0.0000000000E+00
      0.0000000000E+00
      0.3750000000E-02        0.1187500000E+00        0.0000000000E+00        0.0000000000E+00        0.6298664774E-02        0.1007786364E+04        0.1000000000E+01        0.3000000000E+03        0.0000000000E+00
      0.0000000000E+00