title="Starting Config"
 variables = x, y, vx, vy, mass, rho, mu, Temp, surf_normx, surf_normy
ZONE T="Real Particles",F=Point,C=Blue
      0.5000000000E-02        0.5000000000E-02        0.0000000000E+00        0.0000000000E+00        0.1077227804E+00        0.1077227804E+04        0.1000000000E+02        0.3000000000E+03        0.0000000000E+00
      0.0000000000E+00
      0.5000000000E-02        0.1500000000E-01        0.0000000000E+00        0.0000000000E+00        0.1076598900E+00        0.1076598900E+04        0.1000000000E+02        0.3000000000E+03        0.0000000000E+00
      0.0000000000E+00
      0.5000000000E-02        0.2500000000E-01        0.0000000000E+00        0.0000000000E+00        0.1075967784E+00        0.1075967784E+04        0.1000000000E+02        0.3000000000E+03        0.0000000000E+00
      0.0000000000E+00
      0.5000000000E-02        0.3500000000E-01        0.0000000000E+00        0.0000000000E+00        0.1075334439E+00        0.1075334439E+04        0.1000000000E+02        0.3000000000E+03        0.0000000000E+00
      0.0000000000E+00
      0.5000000000E-02        0.4500000000E-01        0.0000000000E+00        0.0000000000E+00        0.1074698848E+00        0.1074698848E+04        0.1000000000E+02        0.3000000000E+03        0.0000000000E+00
      0.0000000000E+00
      0.5000000000E-02        0.5500000000E-01        0.0000000000E+00        0.0000000000E+00        0.1074060994E+00        0.1074060994E+04        0.1000000000E+02        0.3000000000E+03        0.0000000000E+00
      0.0000000000E+00
      0.5000000000E-02        0.6500000000E-01        0.0000000000E+00        0.0000000000E+00        0.1073420859E+00        0.1073420859E+04        0.1000000000E+02        0.3000000000E+03        0.0000000000E+00
      0.0000000000E+00
      0.5000000000E-02        0.7500000000E-01        0.0000000000E+00        0.0000000000E+00        0.1072778425E+00        0.1072778425E+04        0.1000000000E+02        0.3000000000E+03        0.0000000000E+00
      0.0000000000E+00
      0.1500000000E-01        0.5000000000E-02        0.0000000000E+00        0.0000000000E+00        0.1077227804E+00        0.1077227804E+04        0.1000000000E+02        0.3000000000E+03        0.0000000000E+00
      0.0000000000E+00
      0.1500000000E-01        0.1500000000E-01        0.0000000000E+00        0.0000000000E+00        0.1076598900E+00        0.1076598900E+04        0.1000000000E+02        0.3000000000E+03        0.0000000000E+00
      0.0000000000E+00
      0.1500000000E-01        0.2500000000E-01        0.0000000000E+00        0.0000000000E+00        0.1075967784E+00        0.1075967784E+04        0.1000000000E+02        0.3000000000E+03        0.0000000000E+00
      0.0000000000E+00
      0.1500000000E-01        0.3500000000E-01        0.0000000000E+00        0.0000000000E+00        0.1075334439E+00        0.1075334439E+04        0.1000000000E+02        0.3000000000E+03        0.0000000000E+00
      0.0000000000E+00
      0.1500000000E-01        0.4500000000E-01        0.0000000000E+00        0.0000000000E+00        0.1074698848E+00        0.1074698848E+04        0.1000000000E+02        0.3000000000E+03        0.0000000000E+00
      0.0000000000E+00
      0.1500000000E-01        0.5500000000E-01        0.0000000000E+00        0.0000000000E+00        0.1074060994E+00        0.1074060994E+04        0.1000000000E+02        0.3000000000E+03        0.0000000000E+00
      0.0000000000E+00
      0.1500000000E-01        0.6500000000E-01        0.0000000000E+00        0.0000000000E+00        0.1073420859E+00        0.1073420859E+04        0.1000000000E+02        0.3000000000E+03        0.0000000000E+00
      0.0000000000E+00
      0.1500000000E-01        0.7500000000E-01        0.0000000000E+00        0.0000000000E+00        0.1072778425E+00        0.1072778425E+04        0.1000000000E+02        0.3000000000E+03        0.0000000000E+00
      0.0000000000E+00
      0.2500000000E-01        0.5000000000E-02        0.0000000000E+00        0.0000000000E+00        0.1077227804E+00        0.1077227804E+04        0.1000000000E+02        0.3000000000E+03        0.0000000000E+00
      0.0000000000E+00
      0.2500000000E-01        0.1500000000E-01        0.0000000000E+00        0.0000000000E+00        0.1076598900E+00        0.1076598900E+04        0.1000000000E+02        0.3000000000E+03        0.0000000000E+00
      0.0000000000E+00
      0.2500000000E-01        0.2500000000E-01        0.0000000000E+00        0.0000000000E+00        0.1075967784E+00        0.1075967784E+04        0.1000000000E+02        0.3000000000E+03        0.0000000000E+00
      0.0000000000E+00
      0.2500000000E-01        0.3500000000E-01        0.0000000000E+00        0.0000000000E+00        0.1075334439E+00        0.1075334439E+04        0.1000000000E+02        0.3000000000E+03        0.0000000000E+00
      0.0000000000E+00
      0.2500000000E-01        0.4500000000E-01        0.0000000000E+00        0.0000000000E+00        0.1074698848E+00        0.1074698848E+04        0.1000000000E+02        0.3000000000E+03        0.0000000000E+00
      0.0000000000E+00
      0.2500000000E-01        0.5500000000E-01        0.0000000000E+00        0.0000000000E+00        0.1074060994E+00        0.1074060994E+04        0.1000000000E+02        0.3000000000E+03        0.0000000000E+00
      0.0000000000E+00
      0.2500000000E-01        0.6500000000E-01        0.0000000000E+00        0.0000000000E+00        0.1073420859E+00        0.1073420859E+04        0.1000000000E+02        0.3000000000E+03        0.0000000000E+00
      0.0000000000E+00
      0.2500000000E-01        0.7500000000E-01        0.0000000000E+00        0.0000000000E+00        0.1072778425E+00        0.1072778425E+04        0.1000000000E+02        0.3000000000E+03        0.0000000000E+00
      0.0000000000E+00
      0.3500000000E-01        0.5000000000E-02        0.0000000000E+00        0.0000000000E+00        0.1077227804E+00        0.1077227804E+04        0.1000000000E+02        0.3000000000E+03        0.0000000000E+00
      0.0000000000E+00
      0.3500000000E-01        0.1500000000E-01        0.0000000000E+00        0.0000000000E+00        0.1076598900E+00        0.1076598900E+04        0.1000000000E+02        0.3000000000E+03        0.0000000000E+00
      0.0000000000E+00
      0.3500000000E-01        0.2500000000E-01        0.0000000000E+00        0.0000000000E+00        0.1075967784E+00        0.1075967784E+04        0.1000000000E+02        0.3000000000E+03        0.0000000000E+00
      0.0000000000E+00
      0.3500000000E-01        0.3500000000E-01        0.0000000000E+00        0.0000000000E+00        0.1075334439E+00        0.1075334439E+04        0.1000000000E+02        0.3000000000E+03        0.0000000000E+00
      0.0000000000E+00
      0.3500000000E-01        0.4500000000E-01        0.0000000000E+00        0.0000000000E+00        0.1074698848E+00        0.1074698848E+04        0.1000000000E+02        0.3000000000E+03        0.0000000000E+00
      0.0000000000E+00
      0.3500000000E-01        0.5500000000E-01        0.0000000000E+00        0.0000000000E+00        0.1074060994E+00        0.1074060994E+04        0.1000000000E+02        0.3000000000E+03        0.0000000000E+00
      0.0000000000E+00
      0.3500000000E-01        0.6500000000E-01        0.0000000000E+00        0.0000000000E+00        0.1073420859E+00        0.1073420859E+04        0.1000000000E+02        0.3000000000E+03        0.0000000000E+00
      0.0000000000E+00
      0.3500000000E-01        0.7500000000E-01        0.0000000000E+00        0.0000000000E+00        0.1072778425E+00        0.1072778425E+04        0.1000000000E+02        0.3000000000E+03        0.0000000000E+00
      0.0000000000E+00
      0.4500000000E-01        0.5000000000E-02        0.0000000000E+00        0.0000000000E+00        0.1077227804E+00        0.1077227804E+04        0.1000000000E+02        0.3000000000E+03        0.0000000000E+00
      0.0000000000E+00
      0.4500000000E-01        0.1500000000E-01        0.0000000000E+00        0.0000000000E+00        0.1076598900E+00        0.1076598900E+04        0.1000000000E+02        0.3000000000E+03        0.0000000000E+00
      0.0000000000E+00
      0.4500000000E-01        0.2500000000E-01        0.0000000000E+00        0.0000000000E+00        0.1075967784E+00        0.1075967784E+04        0.1000000000E+02        0.3000000000E+03        0.0000000000E+00
      0.0000000000E+00
      0.4500000000E-01        0.5500000000E-01        0.0000000000E+00        0.0000000000E+00        0.1074060994E+00        0.1074060994E+04        0.1000000000E+02        0.3000000000E+03        0.0000000000E+00
      0.0000000000E+00
      0.4500000000E-01        0.6500000000E-01        0.0000000000E+00        0.0000000000E+00        0.1073420859E+00        0.1073420859E+04        0.1000000000E+02        0.3000000000E+03        0.0000000000E+00
      0.0000000000E+00
      0.4500000000E-01        0.7500000000E-01        0.0000000000E+00        0.0000000000E+00        0.1072778425E+00        0.1072778425E+04        0.1000000000E+02        0.3000000000E+03        0.0000000000E+00
      0.0000000000E+00
      0.5500000000E-01        0.5000000000E-02        0.0000000000E+00        0.0000000000E+00        0.1077227804E+00        0.1077227804E+04        0.1000000000E+02        0.3000000000E+03        0.0000000000E+00
      0.0000000000E+00
      0.5500000000E-01        0.1500000000E-01        0.0000000000E+00        0.0000000000E+00        0.1076598900E+00        0.1076598900E+04        0.1000000000E+02        0.3000000000E+03        0.0000000000E+00
      0.0000000000E+00
      0.5500000000E-01        0.6500000000E-01        0.0000000000E+00        0.0000000000E+00        0.1073420859E+00        0.1073420859E+04        0.1000000000E+02        0.3000000000E+03        0.0000000000E+00
      0.0000000000E+00
      0.5500000000E-01        0.7500000000E-01        0.0000000000E+00        0.0000000000E+00        0.1072778425E+00        0.1072778425E+04        0.1000000000E+02        0.3000000000E+03        0.0000000000E+00
      0.0000000000E+00
      0.6500000000E-01        0.5000000000E-02        0.0000000000E+00        0.0000000000E+00        0.1077227804E+00        0.1077227804E+04        0.1000000000E+02        0.3000000000E+03        0.0000000000E+00
      0.0000000000E+00
      0.6500000000E-01        0.1500000000E-01        0.0000000000E+00        0.0000000000E+00        0.1076598900E+00        0.1076598900E+04        0.1000000000E+02        0.3000000000E+03        0.0000000000E+00
      0.0000000000E+00
      0.6500000000E-01        0.6500000000E-01        0.0000000000E+00        0.0000000000E+00        0.1073420859E+00        0.1073420859E+04        0.1000000000E+02        0.3000000000E+03        0.0000000000E+00
      0.0000000000E+00
      0.6500000000E-01        0.7500000000E-01        0.0000000000E+00        0.0000000000E+00        0.1072778425E+00        0.1072778425E+04        0.1000000000E+02        0.3000000000E+03        0.0000000000E+00
      0.0000000000E+00
      0.7500000000E-01        0.5000000000E-02        0.0000000000E+00        0.0000000000E+00        0.1077227804E+00        0.1077227804E+04        0.1000000000E+02        0.3000000000E+03        0.0000000000E+00
      0.0000000000E+00
      0.7500000000E-01        0.1500000000E-01        0.0000000000E+00        0.0000000000E+00        0.1076598900E+00        0.1076598900E+04        0.1000000000E+02        0.3000000000E+03        0.0000000000E+00
      0.0000000000E+00
      0.7500000000E-01        0.2500000000E-01        0.0000000000E+00        0.0000000000E+00        0.1075967784E+00        0.1075967784E+04        0.1000000000E+02        0.3000000000E+03        0.0000000000E+00
      0.0000000000E+00
      0.7500000000E-01        0.5500000000E-01        0.0000000000E+00        0.0000000000E+00        0.1074060994E+00        0.1074060994E+04        0.1000000000E+02        0.3000000000E+03        0.0000000000E+00
      0.0000000000E+00
      0.7500000000E-01        0.6500000000E-01        0.0000000000E+00        0.0000000000E+00        0.1073420859E+00        0.1073420859E+04        0.1000000000E+02        0.3000000000E+03        0.0000000000E+00
      0.0000000000E+00
      0.7500000000E-01        0.7500000000E-01        0.0000000000E+00        0.0000000000E+00        0.1072778425E+00        0.1072778425E+04        0.1000000000E+02        0.3000000000E+03        0.0000000000E+00
      0.0000000000E+00
      0.8500000000E-01        0.5000000000E-02        0.0000000000E+00        0.0000000000E+00        0.1077227804E+00        0.1077227804E+04        0.1000000000E+02        0.3000000000E+03        0.0000000000E+00
      0.0000000000E+00
      0.8500000000E-01        0.1500000000E-01        0.0000000000E+00        0.0000000000E+00        0.1076598900E+00        0.1076598900E+04        0.1000000000E+02        0.3000000000E+03        0.0000000000E+00
      0.0000000000E+00
      0.8500000000E-01        0.2500000000E-01        0.0000000000E+00        0.0000000000E+00        0.1075967784E+00        0.1075967784E+04        0.1000000000E+02        0.3000000000E+03        0.0000000000E+00
      0.0000000000E+00
      0.8500000000E-01        0.3500000000E-01        0.0000000000E+00        0.0000000000E+00        0.1075334439E+00        0.1075334439E+04        0.1000000000E+02        0.3000000000E+03        0.0000000000E+00
      0.0000000000E+00
      0.8500000000E-01        0.4500000000E-01        0.0000000000E+00        0.0000000000E+00        0.1074698848E+00        0.1074698848E+04        0.1000000000E+02        0.3000000000E+03        0.0000000000E+00
      0.0000000000E+00
      0.8500000000E-01        0.5500000000E-01        0.0000000000E+00        0.0000000000E+00        0.1074060994E+00        0.1074060994E+04        0.1000000000E+02        0.3000000000E+03        0.0000000000E+00
      0.0000000000E+00
      0.8500000000E-01        0.6500000000E-01        0.0000000000E+00        0.0000000000E+00        0.1073420859E+00        0.1073420859E+04        0.1000000000E+02        0.3000000000E+03        0.0000000000E+00
      0.0000000000E+00
      0.8500000000E-01        0.7500000000E-01        0.0000000000E+00        0.0000000000E+00        0.1072778425E+00        0.1072778425E+04        0.1000000000E+02        0.3000000000E+03        0.0000000000E+00
      0.0000000000E+00
      0.9500000000E-01        0.5000000000E-02        0.0000000000E+00        0.0000000000E+00        0.1077227804E+00        0.1077227804E+04        0.1000000000E+02        0.3000000000E+03        0.0000000000E+00
      0.0000000000E+00
      0.9500000000E-01        0.1500000000E-01        0.0000000000E+00        0.0000000000E+00        0.1076598900E+00        0.1076598900E+04        0.1000000000E+02        0.3000000000E+03        0.0000000000E+00
      0.0000000000E+00
      0.9500000000E-01        0.2500000000E-01        0.0000000000E+00        0.0000000000E+00        0.1075967784E+00        0.1075967784E+04        0.1000000000E+02        0.3000000000E+03        0.0000000000E+00
      0.0000000000E+00
      0.9500000000E-01        0.3500000000E-01        0.0000000000E+00        0.0000000000E+00        0.1075334439E+00        0.1075334439E+04        0.1000000000E+02        0.3000000000E+03        0.0000000000E+00
      0.0000000000E+00
      0.9500000000E-01        0.4500000000E-01        0.0000000000E+00        0.0000000000E+00        0.1074698848E+00        0.1074698848E+04        0.1000000000E+02        0.3000000000E+03        0.0000000000E+00
      0.0000000000E+00
      0.9500000000E-01        0.5500000000E-01        0.0000000000E+00        0.0000000000E+00        0.1074060994E+00        0.1074060994E+04        0.1000000000E+02        0.3000000000E+03        0.0000000000E+00
      0.0000000000E+00
      0.9500000000E-01        0.6500000000E-01        0.0000000000E+00        0.0000000000E+00        0.1073420859E+00        0.1073420859E+04        0.1000000000E+02        0.3000000000E+03        0.0000000000E+00
      0.0000000000E+00
      0.9500000000E-01        0.7500000000E-01        0.0000000000E+00        0.0000000000E+00        0.1072778425E+00        0.1072778425E+04        0.1000000000E+02        0.3000000000E+03        0.0000000000E+00
      0.0000000000E+00
      0.1050000000E+00        0.5000000000E-02        0.0000000000E+00        0.0000000000E+00        0.1077227804E+00        0.1077227804E+04        0.1000000000E+02        0.3000000000E+03        0.0000000000E+00
      0.0000000000E+00
      0.1050000000E+00        0.1500000000E-01        0.0000000000E+00        0.0000000000E+00        0.1076598900E+00        0.1076598900E+04        0.1000000000E+02        0.3000000000E+03        0.0000000000E+00
      0.0000000000E+00
      0.1050000000E+00        0.2500000000E-01        0.0000000000E+00        0.0000000000E+00        0.1075967784E+00        0.1075967784E+04        0.1000000000E+02        0.3000000000E+03        0.0000000000E+00
      0.0000000000E+00
      0.1050000000E+00        0.3500000000E-01        0.0000000000E+00        0.0000000000E+00        0.1075334439E+00        0.1075334439E+04        0.1000000000E+02        0.3000000000E+03        0.0000000000E+00
      0.0000000000E+00
      0.1050000000E+00        0.4500000000E-01        0.0000000000E+00        0.0000000000E+00        0.1074698848E+00        0.1074698848E+04        0.1000000000E+02        0.3000000000E+03        0.0000000000E+00
      0.0000000000E+00
      0.1050000000E+00        0.5500000000E-01        0.0000000000E+00        0.0000000000E+00        0.1074060994E+00        0.1074060994E+04        0.1000000000E+02        0.3000000000E+03        0.0000000000E+00
      0.0000000000E+00
      0.1050000000E+00        0.6500000000E-01        0.0000000000E+00        0.0000000000E+00        0.1073420859E+00        0.1073420859E+04        0.1000000000E+02        0.3000000000E+03        0.0000000000E+00
      0.0000000000E+00
      0.1050000000E+00        0.7500000000E-01        0.0000000000E+00        0.0000000000E+00        0.1072778425E+00        0.1072778425E+04        0.1000000000E+02        0.3000000000E+03        0.0000000000E+00
      0.0000000000E+00
      0.1150000000E+00        0.5000000000E-02        0.0000000000E+00        0.0000000000E+00        0.1077227804E+00        0.1077227804E+04        0.1000000000E+02        0.3000000000E+03        0.0000000000E+00
      0.0000000000E+00
      0.1150000000E+00        0.1500000000E-01        0.0000000000E+00        0.0000000000E+00        0.1076598900E+00        0.1076598900E+04        0.1000000000E+02        0.3000000000E+03        0.0000000000E+00
      0.0000000000E+00
      0.1150000000E+00        0.2500000000E-01        0.0000000000E+00        0.0000000000E+00        0.1075967784E+00        0.1075967784E+04        0.1000000000E+02        0.3000000000E+03        0.0000000000E+00
      0.0000000000E+00
      0.1150000000E+00        0.3500000000E-01        0.0000000000E+00        0.0000000000E+00        0.1075334439E+00        0.1075334439E+04        0.1000000000E+02        0.3000000000E+03        0.0000000000E+00
      0.0000000000E+00
      0.1150000000E+00        0.4500000000E-01        0.0000000000E+00        0.0000000000E+00        0.1074698848E+00        0.1074698848E+04        0.1000000000E+02        0.3000000000E+03        0.0000000000E+00
      0.0000000000E+00
      0.1150000000E+00        0.5500000000E-01        0.0000000000E+00        0.0000000000E+00        0.1074060994E+00        0.1074060994E+04        0.1000000000E+02        0.3000000000E+03        0.0000000000E+00
      0.0000000000E+00
      0.1150000000E+00        0.6500000000E-01        0.0000000000E+00        0.0000000000E+00        0.1073420859E+00        0.1073420859E+04        0.1000000000E+02        0.3000000000E+03        0.0000000000E+00
      0.0000000000E+00
      0.1150000000E+00        0.7500000000E-01        0.0000000000E+00        0.0000000000E+00        0.1072778425E+00        0.1072778425E+04        0.1000000000E+02        0.3000000000E+03        0.0000000000E+00
      0.0000000000E+00
ZONE T="Edge Particles",F=Point,C=Red
      0.0000000000E+00        0.4000000000E-01        0.0000000000E+00        0.0000000000E+00        0.0000000000E+00        0.1075016926E+04        0.1000000000E+02        0.3000000000E+03        0.1000000000E+01
      0.0000000000E+00
      0.6000000000E-01        0.0000000000E+00        0.0000000000E+00        0.0000000000E+00        0.0000000000E+00        0.1077541432E+04        0.1000000000E+02        0.3000000000E+03        0.0000000000E+00
      0.1000000000E+01
      0.1200000000E+00        0.4000000000E-01        0.0000000000E+00        0.0000000000E+00        0.0000000000E+00        0.1075016926E+04        0.1000000000E+02        0.3000000000E+03       -0.1000000000E+01
      0.0000000000E+00
      0.6000000000E-01        0.8000000000E-01        0.0000000000E+00        0.0000000000E+00        0.0000000000E+00        0.1072456340E+04        0.1000000000E+02        0.3000000000E+03        0.0000000000E+00
     -0.1000000000E+01
      0.7809021000E-01        0.3412221500E-01        0.0000000000E+00        0.0000000000E+00        0.0000000000E+00        0.1075390123E+04        0.1000000000E+02        0.3000000000E+03        0.9510573778E+00
     -0.3090143429E+00
      0.7118052500E-01        0.2461170000E-01        0.0000000000E+00        0.0000000000E+00        0.0000000000E+00        0.1075992332E+04        0.1000000000E+02        0.3000000000E+03        0.5877951697E+00
     -0.8090097888E+00
      0.6000022000E-01        0.2097889500E-01        0.0000000000E+00        0.0000000000E+00        0.0000000000E+00        0.1076221830E+04        0.1000000000E+02        0.3000000000E+03        0.1213511725E-04
     -0.9999999999E+00
      0.4881977000E-01        0.2461152000E-01        0.0000000000E+00        0.0000000000E+00        0.0000000000E+00        0.1075992343E+04        0.1000000000E+02        0.3000000000E+03       -0.5877808360E+00
     -0.8090202030E+00
      0.4190987000E-01        0.3412198000E-01        0.0000000000E+00        0.0000000000E+00        0.0000000000E+00        0.1075390138E+04        0.1000000000E+02        0.3000000000E+03       -0.9510536628E+00
     -0.3090257765E+00
      0.4190974500E-01        0.4587760000E-01        0.0000000000E+00        0.0000000000E+00        0.0000000000E+00        0.1074642961E+04        0.1000000000E+02        0.3000000000E+03       -0.9510611519E+00
      0.3090027270E+00
      0.4881954500E-01        0.5538828500E-01        0.0000000000E+00        0.0000000000E+00        0.0000000000E+00        0.1074036181E+04        0.1000000000E+02        0.3000000000E+03       -0.5877921500E+00
      0.8090119828E+00
      0.5999987500E-01        0.5902114500E-01        0.0000000000E+00        0.0000000000E+00        0.0000000000E+00        0.1073803862E+04        0.1000000000E+02        0.3000000000E+03       -0.5663187581E-05
      0.1000000000E+01
      0.7118013500E-01        0.5538858500E-01        0.0000000000E+00        0.0000000000E+00        0.0000000000E+00        0.1074036162E+04        0.1000000000E+02        0.3000000000E+03        0.5877731785E+00
      0.8090257663E+00
      0.7809006500E-01        0.4587799500E-01        0.0000000000E+00        0.0000000000E+00        0.0000000000E+00        0.1074642936E+04        0.1000000000E+02        0.3000000000E+03        0.9510537274E+00
      0.3090255777E+00
ZONE T="Edge vertices",F=Point,C=Black
      0.0000000000E+00        0.8000000000E-01        0.0000000000E+00        0.0000000000E+00        0.0000000000E+00        0.0000000000E+00        0.0000000000E+00        0.0000000000E+00        0.0000000000E+00
      0.0000000000E+00
      0.0000000000E+00        0.0000000000E+00        0.0000000000E+00        0.0000000000E+00        0.0000000000E+00        0.0000000000E+00        0.0000000000E+00        0.0000000000E+00        0.0000000000E+00
      0.0000000000E+00
      0.0000000000E+00        0.0000000000E+00        0.0000000000E+00        0.0000000000E+00        0.0000000000E+00        0.0000000000E+00        0.0000000000E+00        0.0000000000E+00        0.0000000000E+00
      0.0000000000E+00
      0.1200000000E+00        0.0000000000E+00        0.0000000000E+00        0.0000000000E+00        0.0000000000E+00        0.0000000000E+00        0.0000000000E+00        0.0000000000E+00        0.0000000000E+00
      0.0000000000E+00
      0.1200000000E+00        0.0000000000E+00        0.0000000000E+00        0.0000000000E+00        0.0000000000E+00        0.0000000000E+00        0.0000000000E+00        0.0000000000E+00        0.0000000000E+00
      0.0000000000E+00
      0.1200000000E+00        0.8000000000E-01        0.0000000000E+00        0.0000000000E+00        0.0000000000E+00        0.0000000000E+00        0.0000000000E+00        0.0000000000E+00        0.0000000000E+00
      0.0000000000E+00
      0.1200000000E+00        0.8000000000E-01        0.0000000000E+00        0.0000000000E+00        0.0000000000E+00        0.0000000000E+00        0.0000000000E+00        0.0000000000E+00        0.0000000000E+00
      0.0000000000E+00
      0.0000000000E+00        0.8000000000E-01        0.0000000000E+00        0.0000000000E+00        0.0000000000E+00        0.0000000000E+00        0.0000000000E+00        0.0000000000E+00        0.0000000000E+00
      0.0000000000E+00
      0.8000000000E-01        0.4000000000E-01        0.0000000000E+00        0.0000000000E+00        0.0000000000E+00        0.0000000000E+00        0.0000000000E+00        0.0000000000E+00        0.0000000000E+00
      0.0000000000E+00
      0.7618042000E-01        0.2824443000E-01        0.0000000000E+00        0.0000000000E+00        0.0000000000E+00        0.0000000000E+00        0.0000000000E+00        0.0000000000E+00        0.0000000000E+00
      0.0000000000E+00
      0.7618042000E-01        0.2824443000E-01        0.0000000000E+00        0.0000000000E+00        0.0000000000E+00        0.0000000000E+00        0.0000000000E+00        0.0000000000E+00        0.0000000000E+00
      0.0000000000E+00
      0.6618063000E-01        0.2097897000E-01        0.0000000000E+00        0.0000000000E+00        0.0000000000E+00        0.0000000000E+00        0.0000000000E+00        0.0000000000E+00        0.0000000000E+00
      0.0000000000E+00
      0.6618063000E-01        0.2097897000E-01        0.0000000000E+00        0.0000000000E+00        0.0000000000E+00        0.0000000000E+00        0.0000000000E+00        0.0000000000E+00        0.0000000000E+00
      0.0000000000E+00
      0.5381981000E-01        0.2097882000E-01        0.0000000000E+00        0.0000000000E+00        0.0000000000E+00        0.0000000000E+00        0.0000000000E+00        0.0000000000E+00        0.0000000000E+00
      0.0000000000E+00
      0.5381981000E-01        0.2097882000E-01        0.0000000000E+00        0.0000000000E+00        0.0000000000E+00        0.0000000000E+00        0.0000000000E+00        0.0000000000E+00        0.0000000000E+00
      0.0000000000E+00
      0.4381973000E-01        0.2824422000E-01        0.0000000000E+00        0.0000000000E+00        0.0000000000E+00        0.0000000000E+00        0.0000000000E+00        0.0000000000E+00        0.0000000000E+00
      0.0000000000E+00
      0.4381973000E-01        0.2824422000E-01        0.0000000000E+00        0.0000000000E+00        0.0000000000E+00        0.0000000000E+00        0.0000000000E+00        0.0000000000E+00        0.0000000000E+00
      0.0000000000E+00
      0.4000001000E-01        0.3999974000E-01        0.0000000000E+00        0.0000000000E+00        0.0000000000E+00        0.0000000000E+00        0.0000000000E+00        0.0000000000E+00        0.0000000000E+00
      0.0000000000E+00
      0.4000001000E-01        0.3999974000E-01        0.0000000000E+00        0.0000000000E+00        0.0000000000E+00        0.0000000000E+00        0.0000000000E+00        0.0000000000E+00        0.0000000000E+00
      0.0000000000E+00
      0.4381948000E-01        0.5175546000E-01        0.0000000000E+00        0.0000000000E+00        0.0000000000E+00        0.0000000000E+00        0.0000000000E+00        0.0000000000E+00        0.0000000000E+00
      0.0000000000E+00
      0.4381948000E-01        0.5175546000E-01        0.0000000000E+00        0.0000000000E+00        0.0000000000E+00        0.0000000000E+00        0.0000000000E+00        0.0000000000E+00        0.0000000000E+00
      0.0000000000E+00
      0.5381961000E-01        0.5902111000E-01        0.0000000000E+00        0.0000000000E+00        0.0000000000E+00        0.0000000000E+00        0.0000000000E+00        0.0000000000E+00        0.0000000000E+00
      0.0000000000E+00
      0.5381961000E-01        0.5902111000E-01        0.0000000000E+00        0.0000000000E+00        0.0000000000E+00        0.0000000000E+00        0.0000000000E+00        0.0000000000E+00        0.0000000000E+00
      0.0000000000E+00
      0.6618014000E-01        0.5902118000E-01        0.0000000000E+00        0.0000000000E+00        0.0000000000E+00        0.0000000000E+00        0.0000000000E+00        0.0000000000E+00        0.0000000000E+00
      0.0000000000E+00
      0.6618014000E-01        0.5902118000E-01        0.0000000000E+00        0.0000000000E+00        0.0000000000E+00        0.0000000000E+00        0.0000000000E+00        0.0000000000E+00        0.0000000000E+00
      0.0000000000E+00
      0.7618013000E-01        0.5175599000E-01        0.0000000000E+00        0.0000000000E+00        0.0000000000E+00        0.0000000000E+00        0.0000000000E+00        0.0000000000E+00        0.0000000000E+00
      0.0000000000E+00
      0.7618013000E-01        0.5175599000E-01        0.0000000000E+00        0.0000000000E+00        0.0000000000E+00        0.0000000000E+00        0.0000000000E+00        0.0000000000E+00        0.0000000000E+00
      0.0000000000E+00