title="Starting Config"
 variables = x, y, vx, vy, mass, rho, mu, Temp, surf_normx, surf_normy
ZONE T="Real Particles",F=Point,C=Blue
     -0.5488600843E-01        0.9741223726E-01        0.0000000000E+00        0.0000000000E+00        0.1071330145E+00        0.1071330145E+04        0.1000000000E+02        0.3000000000E+03        0.0000000000E+00
      0.0000000000E+00
     -0.1117431145E+00        0.1215074940E+00        0.0000000000E+00        0.0000000000E+00        0.1069759891E+00        0.1069759891E+04        0.1000000000E+02        0.3000000000E+03        0.0000000000E+00
      0.0000000000E+00
     -0.9142673461E-01       -0.5274406285E-01        0.0000000000E+00        0.0000000000E+00        0.1080816921E+00        0.1080816921E+04        0.1000000000E+02        0.3000000000E+03        0.0000000000E+00
      0.0000000000E+00
     -0.1394878461E+00        0.4774018205E-01        0.0000000000E+00        0.0000000000E+00        0.1074524291E+00        0.1074524291E+04        0.1000000000E+02        0.3000000000E+03        0.0000000000E+00
      0.0000000000E+00
     -0.2915458055E-01        0.5293566652E-01        0.0000000000E+00        0.0000000000E+00        0.1074192855E+00        0.1074192855E+04        0.1000000000E+02        0.3000000000E+03        0.0000000000E+00
      0.0000000000E+00
     -0.2846995430E-01        0.2880419162E-01        0.0000000000E+00        0.0000000000E+00        0.1075727111E+00        0.1075727111E+04        0.1000000000E+02        0.3000000000E+03        0.0000000000E+00
      0.0000000000E+00
     -0.1244525264E+00       -0.2303424607E-01        0.0000000000E+00        0.0000000000E+00        0.1078979238E+00        0.1078979238E+04        0.1000000000E+02        0.3000000000E+03        0.0000000000E+00
      0.0000000000E+00
     -0.1323562631E+00        0.8711437697E-01        0.0000000000E+00        0.0000000000E+00        0.1071997051E+00        0.1071997051E+04        0.1000000000E+02        0.3000000000E+03        0.0000000000E+00
      0.0000000000E+00
      0.1310338917E-03        0.4499794209E-01        0.0000000000E+00        0.0000000000E+00        0.1074698980E+00        0.1074698980E+04        0.1000000000E+02        0.3000000000E+03        0.0000000000E+00
      0.0000000000E+00
     -0.4735639151E-01       -0.3017315550E-01        0.0000000000E+00        0.0000000000E+00        0.1079422527E+00        0.1079422527E+04        0.1000000000E+02        0.3000000000E+03        0.0000000000E+00
      0.0000000000E+00
     -0.1026170854E+00        0.4832596856E-01        0.0000000000E+00        0.0000000000E+00        0.1074486952E+00        0.1074486952E+04        0.1000000000E+02        0.3000000000E+03        0.0000000000E+00
      0.0000000000E+00
     -0.6810523834E-01        0.1178816737E-01        0.0000000000E+00        0.0000000000E+00        0.1076801134E+00        0.1076801134E+04        0.1000000000E+02        0.3000000000E+03        0.0000000000E+00
      0.0000000000E+00
     -0.9644075648E-01        0.8952404531E-01        0.0000000000E+00        0.0000000000E+00        0.1071841220E+00        0.1071841220E+04        0.1000000000E+02        0.3000000000E+03        0.0000000000E+00
      0.0000000000E+00
     -0.1110544281E+00        0.1230059855E-01        0.0000000000E+00        0.0000000000E+00        0.1076768884E+00        0.1076768884E+04        0.1000000000E+02        0.3000000000E+03        0.0000000000E+00
      0.0000000000E+00
     -0.8536013465E-01       -0.1650692290E-01        0.0000000000E+00        0.0000000000E+00        0.1078572966E+00        0.1078572966E+04        0.1000000000E+02        0.3000000000E+03        0.0000000000E+00
      0.0000000000E+00
     -0.7273766953E-01        0.6814149001E-01        0.0000000000E+00        0.0000000000E+00        0.1073219287E+00        0.1073219287E+04        0.1000000000E+02        0.3000000000E+03        0.0000000000E+00
      0.0000000000E+00
      0.4998155287E-02        0.4495680100E-01        0.0000000000E+00        0.0000000000E+00        0.1074701599E+00        0.1074701599E+04        0.1000000000E+02        0.3000000000E+03        0.0000000000E+00
      0.0000000000E+00
      0.1245953386E-01        0.4499999626E-01        0.0000000000E+00        0.0000000000E+00        0.1074698849E+00        0.1074698849E+04        0.1000000000E+02        0.3000000000E+03        0.0000000000E+00
      0.0000000000E+00
      0.2118707262E-02        0.3500001079E-01        0.0000000000E+00        0.0000000000E+00        0.1075334439E+00        0.1075334439E+04        0.1000000000E+02        0.3000000000E+03        0.0000000000E+00
      0.0000000000E+00
      0.4802812663E-02        0.3500198217E-01        0.0000000000E+00        0.0000000000E+00        0.1075334314E+00        0.1075334314E+04        0.1000000000E+02        0.3000000000E+03        0.0000000000E+00
      0.0000000000E+00
     -0.5907443906E-01        0.4125180656E-01        0.0000000000E+00        0.0000000000E+00        0.1074937345E+00        0.1074937345E+04        0.1000000000E+02        0.3000000000E+03        0.0000000000E+00
      0.0000000000E+00
     -0.3907370791E-02        0.3890030255E-01        0.0000000000E+00        0.0000000000E+00        0.1075086808E+00        0.1075086808E+04        0.1000000000E+02        0.3000000000E+03        0.0000000000E+00
      0.0000000000E+00
      0.1563675561E-01        0.4499999103E-01        0.0000000000E+00        0.0000000000E+00        0.1074698849E+00        0.1074698849E+04        0.1000000000E+02        0.3000000000E+03        0.0000000000E+00
      0.0000000000E+00
      0.2017244714E-01        0.3501602823E-01        0.0000000000E+00        0.0000000000E+00        0.1075333422E+00        0.1075333422E+04        0.1000000000E+02        0.3000000000E+03        0.0000000000E+00
      0.0000000000E+00
      0.5081520033E-01        0.3788277981E-01        0.0000000000E+00        0.0000000000E+00        0.1075151444E+00        0.1075151444E+04        0.1000000000E+02        0.3000000000E+03        0.0000000000E+00
      0.0000000000E+00
      0.8579554131E-01        0.4499976647E-01        0.0000000000E+00        0.0000000000E+00        0.1074698863E+00        0.1074698863E+04        0.1000000000E+02        0.3000000000E+03        0.0000000000E+00
      0.0000000000E+00
      0.7964795408E-01        0.3542395304E-01        0.0000000000E+00        0.0000000000E+00        0.1075307539E+00        0.1075307539E+04        0.1000000000E+02        0.3000000000E+03        0.0000000000E+00
      0.0000000000E+00
      0.2327137943E-01        0.4499999126E-01        0.0000000000E+00        0.0000000000E+00        0.1074698849E+00        0.1074698849E+04        0.1000000000E+02        0.3000000000E+03        0.0000000000E+00
      0.0000000000E+00
      0.3099934948E-01        0.4499994662E-01        0.0000000000E+00        0.0000000000E+00        0.1074698852E+00        0.1074698852E+04        0.1000000000E+02        0.3000000000E+03        0.0000000000E+00
      0.0000000000E+00
      0.3700750628E-01        0.4499851682E-01        0.0000000000E+00        0.0000000000E+00        0.1074698943E+00        0.1074698943E+04        0.1000000000E+02        0.3000000000E+03        0.0000000000E+00
      0.0000000000E+00
      0.6883451105E-01        0.3686459868E-01        0.0000000000E+00        0.0000000000E+00        0.1075216098E+00        0.1075216098E+04        0.1000000000E+02        0.3000000000E+03        0.0000000000E+00
      0.0000000000E+00
      0.9582873203E-01        0.3520987957E-01        0.0000000000E+00        0.0000000000E+00        0.1075321123E+00        0.1075321123E+04        0.1000000000E+02        0.3000000000E+03        0.0000000000E+00
      0.0000000000E+00
      0.1013205686E+00        0.4367975214E-01        0.0000000000E+00        0.0000000000E+00        0.1074782892E+00        0.1074782892E+04        0.1000000000E+02        0.3000000000E+03        0.0000000000E+00
      0.0000000000E+00
      0.2830080825E-01        0.3660954560E-01        0.0000000000E+00        0.0000000000E+00        0.1075232290E+00        0.1075232290E+04        0.1000000000E+02        0.3000000000E+03        0.0000000000E+00
      0.0000000000E+00
      0.9057628610E-01        0.3641356894E-01        0.0000000000E+00        0.0000000000E+00        0.1075244731E+00        0.1075244731E+04        0.1000000000E+02        0.3000000000E+03        0.0000000000E+00
      0.0000000000E+00
      0.4734806814E-01        0.3776740781E-01        0.0000000000E+00        0.0000000000E+00        0.1075158771E+00        0.1075158771E+04        0.1000000000E+02        0.3000000000E+03        0.0000000000E+00
      0.0000000000E+00
      0.6663685517E-01        0.3855272608E-01        0.0000000000E+00        0.0000000000E+00        0.1075108890E+00        0.1075108890E+04        0.1000000000E+02        0.3000000000E+03        0.0000000000E+00
      0.0000000000E+00
      0.3824648212E-01        0.4252344290E-01        0.0000000000E+00        0.0000000000E+00        0.1074856466E+00        0.1074856466E+04        0.1000000000E+02        0.3000000000E+03        0.0000000000E+00
      0.0000000000E+00
      0.1734514533E-01        0.3976722533E-01        0.0000000000E+00        0.0000000000E+00        0.1075031720E+00        0.1075031720E+04        0.1000000000E+02        0.3000000000E+03        0.0000000000E+00
      0.0000000000E+00
      0.6109909424E-01        0.3707819927E-01        0.0000000000E+00        0.0000000000E+00        0.1075202536E+00        0.1075202536E+04        0.1000000000E+02        0.3000000000E+03        0.0000000000E+00
      0.0000000000E+00
      0.7538208934E-02        0.3923688544E-01        0.0000000000E+00        0.0000000000E+00        0.1075065422E+00        0.1075065422E+04        0.1000000000E+02        0.3000000000E+03        0.0000000000E+00
      0.0000000000E+00
      0.8161782778E-01        0.4261842341E-01        0.0000000000E+00        0.0000000000E+00        0.1074850424E+00        0.1074850424E+04        0.1000000000E+02        0.3000000000E+03        0.0000000000E+00
      0.0000000000E+00
      0.2535751974E-01        0.3909863034E-01        0.0000000000E+00        0.0000000000E+00        0.1075074207E+00        0.1075074207E+04        0.1000000000E+02        0.3000000000E+03        0.0000000000E+00
      0.0000000000E+00
      0.1002199797E+00        0.3544595134E-01        0.0000000000E+00        0.0000000000E+00        0.1075306143E+00        0.1075306143E+04        0.1000000000E+02        0.3000000000E+03        0.0000000000E+00
      0.0000000000E+00
      0.3759703333E-01        0.3838748956E-01        0.0000000000E+00        0.0000000000E+00        0.1075119386E+00        0.1075119386E+04        0.1000000000E+02        0.3000000000E+03        0.0000000000E+00
      0.0000000000E+00
      0.3715935766E-01        0.3925037306E-01        0.0000000000E+00        0.0000000000E+00        0.1075064565E+00        0.1075064565E+04        0.1000000000E+02        0.3000000000E+03        0.0000000000E+00
      0.0000000000E+00
      0.8257739549E-01        0.3878907252E-01        0.0000000000E+00        0.0000000000E+00        0.1075093875E+00        0.1075093875E+04        0.1000000000E+02        0.3000000000E+03        0.0000000000E+00
      0.0000000000E+00
      0.1832334001E-01        0.4414878013E-01        0.0000000000E+00        0.0000000000E+00        0.1074753039E+00        0.1074753039E+04        0.1000000000E+02        0.3000000000E+03        0.0000000000E+00
      0.0000000000E+00
      0.5582256780E-01        0.3753323462E-01        0.0000000000E+00        0.0000000000E+00        0.1075173642E+00        0.1075173642E+04        0.1000000000E+02        0.3000000000E+03        0.0000000000E+00
      0.0000000000E+00
      0.2658941971E-01        0.4342750780E-01        0.0000000000E+00        0.0000000000E+00        0.1074798944E+00        0.1074798944E+04        0.1000000000E+02        0.3000000000E+03        0.0000000000E+00
      0.0000000000E+00
      0.7971891775E-01        0.3500590871E-01        0.0000000000E+00        0.0000000000E+00        0.1075334065E+00        0.1075334065E+04        0.1000000000E+02        0.3000000000E+03        0.0000000000E+00
      0.0000000000E+00
      0.3944192317E-01        0.4155036151E-01        0.0000000000E+00        0.0000000000E+00        0.1074918359E+00        0.1074918359E+04        0.1000000000E+02        0.3000000000E+03        0.0000000000E+00
      0.0000000000E+00
      0.6424817340E-02        0.4329900150E-01        0.0000000000E+00        0.0000000000E+00        0.1074807122E+00        0.1074807122E+04        0.1000000000E+02        0.3000000000E+03        0.0000000000E+00
      0.0000000000E+00
      0.8259748227E-01        0.3877462835E-01        0.0000000000E+00        0.0000000000E+00        0.1075094792E+00        0.1075094792E+04        0.1000000000E+02        0.3000000000E+03        0.0000000000E+00
      0.0000000000E+00
      0.1034904053E+00        0.3834071314E-01        0.0000000000E+00        0.0000000000E+00        0.1075122357E+00        0.1075122357E+04        0.1000000000E+02        0.3000000000E+03        0.0000000000E+00
      0.0000000000E+00
      0.1062559228E+00        0.3500001538E-01        0.0000000000E+00        0.0000000000E+00        0.1075334438E+00        0.1075334438E+04        0.1000000000E+02        0.3000000000E+03        0.0000000000E+00
      0.0000000000E+00
      0.9357714175E-01        0.4499995033E-01        0.0000000000E+00        0.0000000000E+00        0.1074698852E+00        0.1074698852E+04        0.1000000000E+02        0.3000000000E+03        0.0000000000E+00
      0.0000000000E+00
      0.9799997415E-01        0.4499994321E-01        0.0000000000E+00        0.0000000000E+00        0.1074698852E+00        0.1074698852E+04        0.1000000000E+02        0.3000000000E+03        0.0000000000E+00
      0.0000000000E+00
      0.9155796061E-01        0.3500004159E-01        0.0000000000E+00        0.0000000000E+00        0.1075334437E+00        0.1075334437E+04        0.1000000000E+02        0.3000000000E+03        0.0000000000E+00
      0.0000000000E+00
      0.1080768059E+00        0.3684262765E-01        0.0000000000E+00        0.0000000000E+00        0.1075217493E+00        0.1075217493E+04        0.1000000000E+02        0.3000000000E+03        0.0000000000E+00
      0.0000000000E+00
      0.1102306020E+00        0.4496304064E-01        0.0000000000E+00        0.0000000000E+00        0.1074701202E+00        0.1074701202E+04        0.1000000000E+02        0.3000000000E+03        0.0000000000E+00
      0.0000000000E+00
      0.1200041309E+00        0.4499999363E-01        0.0000000000E+00        0.0000000000E+00        0.1074698849E+00        0.1074698849E+04        0.1000000000E+02        0.3000000000E+03        0.0000000000E+00
      0.0000000000E+00
      0.1182893071E+00        0.4499759229E-01        0.0000000000E+00        0.0000000000E+00        0.1074699002E+00        0.1074699002E+04        0.1000000000E+02        0.3000000000E+03        0.0000000000E+00
      0.0000000000E+00
      0.1945995601E+00        0.5315979524E-01        0.0000000000E+00        0.0000000000E+00        0.1074178543E+00        0.1074178543E+04        0.1000000000E+02        0.3000000000E+03        0.0000000000E+00
      0.0000000000E+00
      0.1770406294E+00        0.2876684788E-01        0.0000000000E+00        0.0000000000E+00        0.1075729475E+00        0.1075729475E+04        0.1000000000E+02        0.3000000000E+03        0.0000000000E+00
      0.0000000000E+00
      0.1171087930E+00        0.3500120422E-01        0.0000000000E+00        0.0000000000E+00        0.1075334363E+00        0.1075334363E+04        0.1000000000E+02        0.3000000000E+03        0.0000000000E+00
      0.0000000000E+00
      0.1150024070E+00        0.4499604668E-01        0.0000000000E+00        0.0000000000E+00        0.1074699100E+00        0.1074699100E+04        0.1000000000E+02        0.3000000000E+03        0.0000000000E+00
      0.0000000000E+00
      0.1149913046E+00        0.3503766486E-01        0.0000000000E+00        0.0000000000E+00        0.1075332050E+00        0.1075332050E+04        0.1000000000E+02        0.3000000000E+03        0.0000000000E+00
      0.0000000000E+00
      0.1244239079E+00        0.3533009342E-01        0.0000000000E+00        0.0000000000E+00        0.1075313495E+00        0.1075313495E+04        0.1000000000E+02        0.3000000000E+03        0.0000000000E+00
      0.0000000000E+00
      0.2173425327E+00       -0.1624673632E-01        0.0000000000E+00        0.0000000000E+00        0.1078556753E+00        0.1078556753E+04        0.1000000000E+02        0.3000000000E+03        0.0000000000E+00
      0.0000000000E+00
      0.2232815460E+00        0.3568787625E-01        0.0000000000E+00        0.0000000000E+00        0.1075290791E+00        0.1075290791E+04        0.1000000000E+02        0.3000000000E+03        0.0000000000E+00
      0.0000000000E+00
      0.1935686710E+00        0.8509600104E-01        0.0000000000E+00        0.0000000000E+00        0.1072127473E+00        0.1072127473E+04        0.1000000000E+02        0.3000000000E+03        0.0000000000E+00
      0.0000000000E+00
      0.1576292036E+00        0.9361482701E-01        0.0000000000E+00        0.0000000000E+00        0.1071576361E+00        0.1071576361E+04        0.1000000000E+02        0.3000000000E+03        0.0000000000E+00
      0.0000000000E+00
      0.2218389332E+00        0.1066592613E+00        0.0000000000E+00        0.0000000000E+00        0.1070729162E+00        0.1070729162E+04        0.1000000000E+02        0.3000000000E+03        0.0000000000E+00
      0.0000000000E+00
      0.1487463892E+00        0.2909580233E-01        0.0000000000E+00        0.0000000000E+00        0.1075708649E+00        0.1075708649E+04        0.1000000000E+02        0.3000000000E+03        0.0000000000E+00
      0.0000000000E+00
      0.1908781848E+00        0.2211267498E-02        0.0000000000E+00        0.0000000000E+00        0.1077402796E+00        0.1077402796E+04        0.1000000000E+02        0.3000000000E+03        0.0000000000E+00
      0.0000000000E+00
      0.2761513832E+00        0.7378993432E-01        0.0000000000E+00        0.0000000000E+00        0.1072856286E+00        0.1072856286E+04        0.1000000000E+02        0.3000000000E+03        0.0000000000E+00
      0.0000000000E+00
      0.1913353592E+00        0.1306358952E+00        0.0000000000E+00        0.0000000000E+00        0.1069161377E+00        0.1069161377E+04        0.1000000000E+02        0.3000000000E+03        0.0000000000E+00
      0.0000000000E+00
      0.1624322683E+00       -0.1974985438E-01        0.0000000000E+00        0.0000000000E+00        0.1078774926E+00        0.1078774926E+04        0.1000000000E+02        0.3000000000E+03        0.0000000000E+00
      0.0000000000E+00
      0.2579798232E+00        0.2754254772E-01        0.0000000000E+00        0.0000000000E+00        0.1075806965E+00        0.1075806965E+04        0.1000000000E+02        0.3000000000E+03        0.0000000000E+00
      0.0000000000E+00
      0.2377479960E+00        0.7131742574E-01        0.0000000000E+00        0.0000000000E+00        0.1073015274E+00        0.1073015274E+04        0.1000000000E+02        0.3000000000E+03        0.0000000000E+00
      0.0000000000E+00
      0.1496935121E+00        0.4943710265E-01        0.0000000000E+00        0.0000000000E+00        0.1074416106E+00        0.1074416106E+04        0.1000000000E+02        0.3000000000E+03        0.0000000000E+00
      0.0000000000E+00
      0.1931769529E+00       -0.4547005246E-01        0.0000000000E+00        0.0000000000E+00        0.1080368723E+00        0.1080368723E+04        0.1000000000E+02        0.3000000000E+03        0.0000000000E+00
      0.0000000000E+00
      0.2530544369E+00       -0.1042005673E-01        0.0000000000E+00        0.0000000000E+00        0.1078193281E+00        0.1078193281E+04        0.1000000000E+02        0.3000000000E+03        0.0000000000E+00
      0.0000000000E+00
ZONE T="Edge Particles",F=Point,C=Red
      0.0000000000E+00        0.4000000000E-01        0.0000000000E+00        0.0000000000E+00        0.0000000000E+00        0.1075016926E+04        0.1000000000E+02        0.3000000000E+03        0.1000000000E+01
      0.0000000000E+00
      0.6000000000E-01        0.0000000000E+00        0.0000000000E+00        0.0000000000E+00        0.0000000000E+00        0.1077541432E+04        0.1000000000E+02        0.3000000000E+03        0.0000000000E+00
      0.1000000000E+01
      0.1200000000E+00        0.4000000000E-01        0.0000000000E+00        0.0000000000E+00        0.0000000000E+00        0.1075016926E+04        0.1000000000E+02        0.3000000000E+03       -0.1000000000E+01
      0.0000000000E+00
      0.6000000000E-01        0.8000000000E-01        0.0000000000E+00        0.0000000000E+00        0.0000000000E+00        0.1072456340E+04        0.1000000000E+02        0.3000000000E+03        0.0000000000E+00
     -0.1000000000E+01
      0.7809021000E-01        0.3412221500E-01        0.0000000000E+00        0.0000000000E+00        0.0000000000E+00        0.1075390123E+04        0.1000000000E+02        0.3000000000E+03        0.9510573778E+00
     -0.3090143429E+00
      0.7118052500E-01        0.2461170000E-01        0.0000000000E+00        0.0000000000E+00        0.0000000000E+00        0.1075992332E+04        0.1000000000E+02        0.3000000000E+03        0.5877951697E+00
     -0.8090097888E+00
      0.6000022000E-01        0.2097889500E-01        0.0000000000E+00        0.0000000000E+00        0.0000000000E+00        0.1076221830E+04        0.1000000000E+02        0.3000000000E+03        0.1213511725E-04
     -0.9999999999E+00
      0.4881977000E-01        0.2461152000E-01        0.0000000000E+00        0.0000000000E+00        0.0000000000E+00        0.1075992343E+04        0.1000000000E+02        0.3000000000E+03       -0.5877808360E+00
     -0.8090202030E+00
      0.4190987000E-01        0.3412198000E-01        0.0000000000E+00        0.0000000000E+00        0.0000000000E+00        0.1075390138E+04        0.1000000000E+02        0.3000000000E+03       -0.9510536628E+00
     -0.3090257765E+00
      0.4190974500E-01        0.4587760000E-01        0.0000000000E+00        0.0000000000E+00        0.0000000000E+00        0.1074642961E+04        0.1000000000E+02        0.3000000000E+03       -0.9510611519E+00
      0.3090027270E+00
      0.4881954500E-01        0.5538828500E-01        0.0000000000E+00        0.0000000000E+00        0.0000000000E+00        0.1074036181E+04        0.1000000000E+02        0.3000000000E+03       -0.5877921500E+00
      0.8090119828E+00
      0.5999987500E-01        0.5902114500E-01        0.0000000000E+00        0.0000000000E+00        0.0000000000E+00        0.1073803862E+04        0.1000000000E+02        0.3000000000E+03       -0.5663187581E-05
      0.1000000000E+01
      0.7118013500E-01        0.5538858500E-01        0.0000000000E+00        0.0000000000E+00        0.0000000000E+00        0.1074036162E+04        0.1000000000E+02        0.3000000000E+03        0.5877731785E+00
      0.8090257663E+00
      0.7809006500E-01        0.4587799500E-01        0.0000000000E+00        0.0000000000E+00        0.0000000000E+00        0.1074642936E+04        0.1000000000E+02        0.3000000000E+03        0.9510537274E+00
      0.3090255777E+00
ZONE T="Edge vertices",F=Point,C=Black
      0.0000000000E+00        0.4000000000E-01        0.0000000000E+00        0.0000000000E+00        0.0000000000E+00        0.0000000000E+00        0.0000000000E+00        0.0000000000E+00        0.0000000000E+00
      0.0000000000E+00
      0.6000000000E-01        0.0000000000E+00        0.0000000000E+00        0.0000000000E+00        0.0000000000E+00        0.0000000000E+00        0.0000000000E+00        0.0000000000E+00        0.0000000000E+00
      0.0000000000E+00
      0.1200000000E+00        0.4000000000E-01        0.0000000000E+00        0.0000000000E+00        0.0000000000E+00        0.0000000000E+00        0.0000000000E+00        0.0000000000E+00        0.0000000000E+00
      0.0000000000E+00
      0.7809021000E-01        0.3412221500E-01        0.0000000000E+00        0.0000000000E+00        0.0000000000E+00        0.0000000000E+00        0.0000000000E+00        0.0000000000E+00        0.0000000000E+00
      0.0000000000E+00
      0.7118052500E-01        0.2461170000E-01        0.0000000000E+00        0.0000000000E+00        0.0000000000E+00        0.0000000000E+00        0.0000000000E+00        0.0000000000E+00        0.0000000000E+00
      0.0000000000E+00
      0.6000022000E-01        0.2097889500E-01        0.0000000000E+00        0.0000000000E+00        0.0000000000E+00        0.0000000000E+00        0.0000000000E+00        0.0000000000E+00        0.0000000000E+00
      0.0000000000E+00
      0.4881977000E-01        0.2461152000E-01        0.0000000000E+00        0.0000000000E+00        0.0000000000E+00        0.0000000000E+00        0.0000000000E+00        0.0000000000E+00        0.0000000000E+00
      0.0000000000E+00
      0.4190987000E-01        0.3412198000E-01        0.0000000000E+00        0.0000000000E+00        0.0000000000E+00        0.0000000000E+00        0.0000000000E+00        0.0000000000E+00        0.0000000000E+00
      0.0000000000E+00
      0.4190974500E-01        0.4587760000E-01        0.0000000000E+00        0.0000000000E+00        0.0000000000E+00        0.0000000000E+00        0.0000000000E+00        0.0000000000E+00        0.0000000000E+00
      0.0000000000E+00
      0.4881954500E-01        0.5538828500E-01        0.0000000000E+00        0.0000000000E+00        0.0000000000E+00        0.0000000000E+00        0.0000000000E+00        0.0000000000E+00        0.0000000000E+00
      0.0000000000E+00
      0.5999987500E-01        0.5902114500E-01        0.0000000000E+00        0.0000000000E+00        0.0000000000E+00        0.0000000000E+00        0.0000000000E+00        0.0000000000E+00        0.0000000000E+00
      0.0000000000E+00
      0.7118013500E-01        0.5538858500E-01        0.0000000000E+00        0.0000000000E+00        0.0000000000E+00        0.0000000000E+00        0.0000000000E+00        0.0000000000E+00        0.0000000000E+00
      0.0000000000E+00
      0.7809006500E-01        0.4587799500E-01        0.0000000000E+00        0.0000000000E+00        0.0000000000E+00        0.0000000000E+00        0.0000000000E+00        0.0000000000E+00        0.0000000000E+00
      0.0000000000E+00
      0.0000000000E+00        0.8000000000E-01        0.0000000000E+00        0.0000000000E+00        0.0000000000E+00        0.0000000000E+00        0.0000000000E+00        0.0000000000E+00        0.0000000000E+00
      0.0000000000E+00
      0.0000000000E+00        0.0000000000E+00        0.0000000000E+00        0.0000000000E+00        0.0000000000E+00        0.0000000000E+00        0.0000000000E+00        0.0000000000E+00        0.0000000000E+00
      0.0000000000E+00
      0.0000000000E+00        0.0000000000E+00        0.0000000000E+00        0.0000000000E+00        0.0000000000E+00        0.0000000000E+00        0.0000000000E+00        0.0000000000E+00        0.0000000000E+00
      0.0000000000E+00
      0.1200000000E+00        0.0000000000E+00        0.0000000000E+00        0.0000000000E+00        0.0000000000E+00        0.0000000000E+00        0.0000000000E+00        0.0000000000E+00        0.0000000000E+00
      0.0000000000E+00
      0.1200000000E+00        0.0000000000E+00        0.0000000000E+00        0.0000000000E+00        0.0000000000E+00        0.0000000000E+00        0.0000000000E+00        0.0000000000E+00        0.0000000000E+00
      0.0000000000E+00
      0.1200000000E+00        0.8000000000E-01        0.0000000000E+00        0.0000000000E+00        0.0000000000E+00        0.0000000000E+00        0.0000000000E+00        0.0000000000E+00        0.0000000000E+00
      0.0000000000E+00
      0.1200000000E+00        0.8000000000E-01        0.0000000000E+00        0.0000000000E+00        0.0000000000E+00        0.0000000000E+00        0.0000000000E+00        0.0000000000E+00        0.0000000000E+00
      0.0000000000E+00
      0.0000000000E+00        0.8000000000E-01        0.0000000000E+00        0.0000000000E+00        0.0000000000E+00        0.0000000000E+00        0.0000000000E+00        0.0000000000E+00        0.0000000000E+00
      0.0000000000E+00
      0.8000000000E-01        0.4000000000E-01        0.0000000000E+00        0.0000000000E+00        0.0000000000E+00        0.0000000000E+00        0.0000000000E+00        0.0000000000E+00        0.0000000000E+00
      0.0000000000E+00
      0.7618042000E-01        0.2824443000E-01        0.0000000000E+00        0.0000000000E+00        0.0000000000E+00        0.0000000000E+00        0.0000000000E+00        0.0000000000E+00        0.0000000000E+00
      0.0000000000E+00
      0.7618042000E-01        0.2824443000E-01        0.0000000000E+00        0.0000000000E+00        0.0000000000E+00        0.0000000000E+00        0.0000000000E+00        0.0000000000E+00        0.0000000000E+00
      0.0000000000E+00
      0.6618063000E-01        0.2097897000E-01        0.0000000000E+00        0.0000000000E+00        0.0000000000E+00        0.0000000000E+00        0.0000000000E+00        0.0000000000E+00        0.0000000000E+00
      0.0000000000E+00
      0.6618063000E-01        0.2097897000E-01        0.0000000000E+00        0.0000000000E+00        0.0000000000E+00        0.0000000000E+00        0.0000000000E+00        0.0000000000E+00        0.0000000000E+00
      0.0000000000E+00
      0.5381981000E-01        0.2097882000E-01        0.0000000000E+00        0.0000000000E+00        0.0000000000E+00        0.0000000000E+00        0.0000000000E+00        0.0000000000E+00        0.0000000000E+00
      0.0000000000E+00