title="Starting Config"
 variables = x, y, vx, vy, mass, rho, mu, Temp, surf_normx, surf_normy
ZONE T="Real Particles",F=Point,C=Blue
      0.1704682090E-01        0.9529114814E-03        0.0000000000E+00        0.0000000000E+00        0.4309926808E-02        0.1077481702E+04        0.1000000000E+02        0.3000000000E+03        0.0000000000E+00
      0.0000000000E+00
      0.1547858620E-01        0.1076281544E-02        0.0000000000E+00        0.0000000000E+00        0.4309895870E-02        0.1077473968E+04        0.1000000000E+02        0.3000000000E+03        0.0000000000E+00
      0.0000000000E+00
      0.1931186434E-01        0.5424823118E-02        0.0000000000E+00        0.0000000000E+00        0.4308804526E-02        0.1077201131E+04        0.1000000000E+02        0.3000000000E+03        0.0000000000E+00
      0.0000000000E+00
      0.1286588135E-01        0.5486677120E-02        0.0000000000E+00        0.0000000000E+00        0.4308788991E-02        0.1077197248E+04        0.1000000000E+02        0.3000000000E+03        0.0000000000E+00
      0.0000000000E+00
      0.1539063264E-01        0.5312589370E-02        0.0000000000E+00        0.0000000000E+00        0.4308832714E-02        0.1077208178E+04        0.1000000000E+02        0.3000000000E+03        0.0000000000E+00
      0.0000000000E+00
      0.8475477037E-02        0.4961157812E-03        0.0000000000E+00        0.0000000000E+00        0.4310041348E-02        0.1077510337E+04        0.1000000000E+02        0.3000000000E+03        0.0000000000E+00
      0.0000000000E+00
      0.1219191077E-01        0.9397384945E-03        0.0000000000E+00        0.0000000000E+00        0.4309930111E-02        0.1077482528E+04        0.1000000000E+02        0.3000000000E+03        0.0000000000E+00
      0.0000000000E+00
      0.8332451074E-02        0.2070569870E-02        0.0000000000E+00        0.0000000000E+00        0.4309646482E-02        0.1077411620E+04        0.1000000000E+02        0.3000000000E+03        0.0000000000E+00
      0.0000000000E+00
      0.8215209223E-02        0.3608930752E-02        0.0000000000E+00        0.0000000000E+00        0.4309260458E-02        0.1077315115E+04        0.1000000000E+02        0.3000000000E+03        0.0000000000E+00
      0.0000000000E+00
      0.8331455680E-02        0.5889288677E-02        0.0000000000E+00        0.0000000000E+00        0.4308687862E-02        0.1077171965E+04        0.1000000000E+02        0.3000000000E+03        0.0000000000E+00
      0.0000000000E+00
      0.8302944009E-02        0.1379612110E-01        0.0000000000E+00        0.0000000000E+00        0.4306698917E-02        0.1076674729E+04        0.1000000000E+02        0.3000000000E+03        0.0000000000E+00
      0.0000000000E+00
      0.8179808264E-02        0.1611550162E-01        0.0000000000E+00        0.0000000000E+00        0.4306114436E-02        0.1076528609E+04        0.1000000000E+02        0.3000000000E+03        0.0000000000E+00
      0.0000000000E+00
      0.8311055298E-02        0.1457809543E-01        0.0000000000E+00        0.0000000000E+00        0.4306501914E-02        0.1076625478E+04        0.1000000000E+02        0.3000000000E+03        0.0000000000E+00
      0.0000000000E+00
      0.8334293473E-02        0.1850003647E-01        0.0000000000E+00        0.0000000000E+00        0.4305513039E-02        0.1076378260E+04        0.1000000000E+02        0.3000000000E+03        0.0000000000E+00
      0.0000000000E+00
      0.8295313018E-02        0.2241782950E-01        0.0000000000E+00        0.0000000000E+00        0.4304523848E-02        0.1076130962E+04        0.1000000000E+02        0.3000000000E+03        0.0000000000E+00
      0.0000000000E+00
      0.8399711945E-02        0.2550677364E-01        0.0000000000E+00        0.0000000000E+00        0.4303742967E-02        0.1075935742E+04        0.1000000000E+02        0.3000000000E+03        0.0000000000E+00
      0.0000000000E+00
      0.8170925768E-02        0.2791410566E-01        0.0000000000E+00        0.0000000000E+00        0.4303133807E-02        0.1075783452E+04        0.1000000000E+02        0.3000000000E+03        0.0000000000E+00
      0.0000000000E+00
      0.8429055839E-02        0.3254026726E-01        0.0000000000E+00        0.0000000000E+00        0.4301961732E-02        0.1075490433E+04        0.1000000000E+02        0.3000000000E+03        0.0000000000E+00
      0.0000000000E+00
      0.8035464295E-02        0.3553328003E-01        0.0000000000E+00        0.0000000000E+00        0.4301202406E-02        0.1075300601E+04        0.1000000000E+02        0.3000000000E+03        0.0000000000E+00
      0.0000000000E+00
      0.8090997818E-02        0.3720912447E-01        0.0000000000E+00        0.0000000000E+00        0.4300776893E-02        0.1075194223E+04        0.1000000000E+02        0.3000000000E+03        0.0000000000E+00
      0.0000000000E+00
      0.8142216246E-02        0.4045319064E-01        0.0000000000E+00        0.0000000000E+00        0.4299952477E-02        0.1074988119E+04        0.1000000000E+02        0.3000000000E+03        0.0000000000E+00
      0.0000000000E+00
      0.8090033411E-02        0.4516790185E-01        0.0000000000E+00        0.0000000000E+00        0.4298752630E-02        0.1074688158E+04        0.1000000000E+02        0.3000000000E+03        0.0000000000E+00
      0.0000000000E+00
      0.8358798519E-02        0.4829382336E-01        0.0000000000E+00        0.0000000000E+00        0.4297956006E-02        0.1074489001E+04        0.1000000000E+02        0.3000000000E+03        0.0000000000E+00
      0.0000000000E+00
      0.8265315388E-02        0.4675486332E-01        0.0000000000E+00        0.0000000000E+00        0.4298348312E-02        0.1074587078E+04        0.1000000000E+02        0.3000000000E+03        0.0000000000E+00
      0.0000000000E+00
      0.8312081275E-02        0.5390415952E-01        0.0000000000E+00        0.0000000000E+00        0.4296524015E-02        0.1074131004E+04        0.1000000000E+02        0.3000000000E+03        0.0000000000E+00
      0.0000000000E+00
      0.1073448524E-01        0.6126061963E-01        0.0000000000E+00        0.0000000000E+00        0.4294641992E-02        0.1073660498E+04        0.1000000000E+02        0.3000000000E+03        0.0000000000E+00
      0.0000000000E+00
      0.8194627075E-02        0.6270801491E-01        0.0000000000E+00        0.0000000000E+00        0.4294271117E-02        0.1073567779E+04        0.1000000000E+02        0.3000000000E+03        0.0000000000E+00
      0.0000000000E+00
      0.8104548899E-02        0.5712395464E-01        0.0000000000E+00        0.0000000000E+00        0.4295700895E-02        0.1073925224E+04        0.1000000000E+02        0.3000000000E+03        0.0000000000E+00
      0.0000000000E+00
      0.8362694940E-02        0.5790457114E-01        0.0000000000E+00        0.0000000000E+00        0.4295501193E-02        0.1073875298E+04        0.1000000000E+02        0.3000000000E+03        0.0000000000E+00
      0.0000000000E+00
      0.8268384689E-02        0.7235320596E-01        0.0000000000E+00        0.0000000000E+00        0.4291794754E-02        0.1072948689E+04        0.1000000000E+02        0.3000000000E+03        0.0000000000E+00
      0.0000000000E+00
      0.8184658276E-02        0.7473297979E-01        0.0000000000E+00        0.0000000000E+00        0.4291182437E-02        0.1072795609E+04        0.1000000000E+02        0.3000000000E+03        0.0000000000E+00
      0.0000000000E+00
      0.8245340072E-02        0.7550940748E-01        0.0000000000E+00        0.0000000000E+00        0.4290982548E-02        0.1072745637E+04        0.1000000000E+02        0.3000000000E+03        0.0000000000E+00
      0.0000000000E+00
      0.8507097506E-02        0.7949928765E-01        0.0000000000E+00        0.0000000000E+00        0.4289954483E-02        0.1072488621E+04        0.1000000000E+02        0.3000000000E+03        0.0000000000E+00
      0.0000000000E+00
      0.8194352921E-02        0.7758817017E-01        0.0000000000E+00        0.0000000000E+00        0.4290447101E-02        0.1072611775E+04        0.1000000000E+02        0.3000000000E+03        0.0000000000E+00
      0.0000000000E+00
      0.1266905401E-01        0.7679472220E-01        0.0000000000E+00        0.0000000000E+00        0.4290651525E-02        0.1072662881E+04        0.1000000000E+02        0.3000000000E+03        0.0000000000E+00
      0.0000000000E+00
      0.1665187760E-01        0.7289084531E-01        0.0000000000E+00        0.0000000000E+00        0.4291656465E-02        0.1072914116E+04        0.1000000000E+02        0.3000000000E+03        0.0000000000E+00
      0.0000000000E+00
      0.1958359565E-01        0.7439966615E-01        0.0000000000E+00        0.0000000000E+00        0.4291268230E-02        0.1072817058E+04        0.1000000000E+02        0.3000000000E+03        0.0000000000E+00
      0.0000000000E+00
      0.1985518182E-01        0.7631738292E-01        0.0000000000E+00        0.0000000000E+00        0.4290774478E-02        0.1072693619E+04        0.1000000000E+02        0.3000000000E+03        0.0000000000E+00
      0.0000000000E+00
      0.1302002670E-01        0.7483669513E-01        0.0000000000E+00        0.0000000000E+00        0.4291155739E-02        0.1072788935E+04        0.1000000000E+02        0.3000000000E+03        0.0000000000E+00
      0.0000000000E+00
      0.1544839498E-01        0.7892999719E-01        0.0000000000E+00        0.0000000000E+00        0.4290101261E-02        0.1072525315E+04        0.1000000000E+02        0.3000000000E+03        0.0000000000E+00
      0.0000000000E+00
      0.1981686917E-01        0.1140002639E-02        0.0000000000E+00        0.0000000000E+00        0.4309879890E-02        0.1077469973E+04        0.1000000000E+02        0.3000000000E+03        0.0000000000E+00
      0.0000000000E+00
      0.9021411791E-02       -0.8239704079E-02        0.0000000000E+00        0.0000000000E+00        0.4312228318E-02        0.1078057080E+04        0.1000000000E+02        0.3000000000E+03        0.0000000000E+00
      0.0000000000E+00
      0.1842783076E-01        0.3584783310E-02        0.0000000000E+00        0.0000000000E+00        0.4309266519E-02        0.1077316630E+04        0.1000000000E+02        0.3000000000E+03        0.0000000000E+00
      0.0000000000E+00
      0.1097331838E-01        0.5301561934E-02        0.0000000000E+00        0.0000000000E+00        0.4308835483E-02        0.1077208871E+04        0.1000000000E+02        0.3000000000E+03        0.0000000000E+00
      0.0000000000E+00
      0.1373422824E-01        0.9092487014E-03        0.0000000000E+00        0.0000000000E+00        0.4309937757E-02        0.1077484439E+04        0.1000000000E+02        0.3000000000E+03        0.0000000000E+00
      0.0000000000E+00
      0.1089493593E-01        0.8433799087E-02        0.0000000000E+00        0.0000000000E+00        0.4308048398E-02        0.1077012099E+04        0.1000000000E+02        0.3000000000E+03        0.0000000000E+00
      0.0000000000E+00
      0.1121246132E-01        0.3785323981E-02        0.0000000000E+00        0.0000000000E+00        0.4309216182E-02        0.1077304046E+04        0.1000000000E+02        0.3000000000E+03        0.0000000000E+00
      0.0000000000E+00
      0.1100167237E-01        0.6791446534E-02        0.0000000000E+00        0.0000000000E+00        0.4308461205E-02        0.1077115301E+04        0.1000000000E+02        0.3000000000E+03        0.0000000000E+00
      0.0000000000E+00
      0.8357174717E-02        0.6125813717E-03        0.0000000000E+00        0.0000000000E+00        0.4310012146E-02        0.1077503037E+04        0.1000000000E+02        0.3000000000E+03        0.0000000000E+00
      0.0000000000E+00
      0.8254958242E-02        0.5150613879E-02        0.0000000000E+00        0.0000000000E+00        0.4308873393E-02        0.1077218348E+04        0.1000000000E+02        0.3000000000E+03        0.0000000000E+00
      0.0000000000E+00
      0.8339057364E-02        0.4279613650E-02        0.0000000000E+00        0.0000000000E+00        0.4309092098E-02        0.1077273024E+04        0.1000000000E+02        0.3000000000E+03        0.0000000000E+00
      0.0000000000E+00
      0.8346502300E-02        0.7448566538E-02        0.0000000000E+00        0.0000000000E+00        0.4308296065E-02        0.1077074016E+04        0.1000000000E+02        0.3000000000E+03        0.0000000000E+00
      0.0000000000E+00
      0.8023656453E-02        0.1225783849E-01        0.0000000000E+00        0.0000000000E+00        0.4307086301E-02        0.1076771575E+04        0.1000000000E+02        0.3000000000E+03        0.0000000000E+00
      0.0000000000E+00
      0.8276064609E-02        0.9846660625E-02        0.0000000000E+00        0.0000000000E+00        0.4307693083E-02        0.1076923271E+04        0.1000000000E+02        0.3000000000E+03        0.0000000000E+00
      0.0000000000E+00
      0.8028629468E-02        0.1914121576E-01        0.0000000000E+00        0.0000000000E+00        0.4305351243E-02        0.1076337811E+04        0.1000000000E+02        0.3000000000E+03        0.0000000000E+00
      0.0000000000E+00
      0.8070593298E-02        0.2479168439E-01        0.0000000000E+00        0.0000000000E+00        0.4303923816E-02        0.1075980954E+04        0.1000000000E+02        0.3000000000E+03        0.0000000000E+00
      0.0000000000E+00
      0.8112181538E-02        0.2710938524E-01        0.0000000000E+00        0.0000000000E+00        0.4303337494E-02        0.1075834374E+04        0.1000000000E+02        0.3000000000E+03        0.0000000000E+00
      0.0000000000E+00
      0.8486240543E-02        0.3024020844E-01        0.0000000000E+00        0.0000000000E+00        0.4302544710E-02        0.1075636177E+04        0.1000000000E+02        0.3000000000E+03        0.0000000000E+00
      0.0000000000E+00
      0.8258147432E-02        0.3883251581E-01        0.0000000000E+00        0.0000000000E+00        0.4300364458E-02        0.1075091115E+04        0.1000000000E+02        0.3000000000E+03        0.0000000000E+00
      0.0000000000E+00
      0.8231790213E-02        0.3321027533E-01        0.0000000000E+00        0.0000000000E+00        0.4301791821E-02        0.1075447955E+04        0.1000000000E+02        0.3000000000E+03        0.0000000000E+00
      0.0000000000E+00
      0.8014404168E-02        0.5070180215E-01        0.0000000000E+00        0.0000000000E+00        0.4297341740E-02        0.1074335435E+04        0.1000000000E+02        0.3000000000E+03        0.0000000000E+00
      0.0000000000E+00
      0.8355600638E-02        0.4595310460E-01        0.0000000000E+00        0.0000000000E+00        0.4298552609E-02        0.1074638152E+04        0.1000000000E+02        0.3000000000E+03        0.0000000000E+00
      0.0000000000E+00
      0.8131105081E-02        0.5152830019E-01        0.0000000000E+00        0.0000000000E+00        0.4297130782E-02        0.1074282696E+04        0.1000000000E+02        0.3000000000E+03        0.0000000000E+00
      0.0000000000E+00
      0.1070432095E-01        0.5599106523E-01        0.0000000000E+00        0.0000000000E+00        0.4295990619E-02        0.1073997655E+04        0.1000000000E+02        0.3000000000E+03        0.0000000000E+00
      0.0000000000E+00
      0.8032161925E-02        0.5871509711E-01        0.0000000000E+00        0.0000000000E+00        0.4295293780E-02        0.1073823445E+04        0.1000000000E+02        0.3000000000E+03        0.0000000000E+00
      0.0000000000E+00
      0.1082926334E-01        0.6461294200E-01        0.0000000000E+00        0.0000000000E+00        0.4293782714E-02        0.1073445678E+04        0.1000000000E+02        0.3000000000E+03        0.0000000000E+00
      0.0000000000E+00
      0.8037265506E-02        0.6672412967E-01        0.0000000000E+00        0.0000000000E+00        0.4293241038E-02        0.1073310259E+04        0.1000000000E+02        0.3000000000E+03        0.0000000000E+00
      0.0000000000E+00
      0.8228433165E-02        0.6833897307E-01        0.0000000000E+00        0.0000000000E+00        0.4292826434E-02        0.1073206608E+04        0.1000000000E+02        0.3000000000E+03        0.0000000000E+00
      0.0000000000E+00
      0.8366567460E-02        0.7154187208E-01        0.0000000000E+00        0.0000000000E+00        0.4292003392E-02        0.1073000848E+04        0.1000000000E+02        0.3000000000E+03        0.0000000000E+00
      0.0000000000E+00
      0.8036965456E-02        0.6757482397E-01        0.0000000000E+00        0.0000000000E+00        0.4293022655E-02        0.1073255664E+04        0.1000000000E+02        0.3000000000E+03        0.0000000000E+00
      0.0000000000E+00
      0.8246017482E-02        0.7698721969E-01        0.0000000000E+00        0.0000000000E+00        0.4290601935E-02        0.1072650484E+04        0.1000000000E+02        0.3000000000E+03        0.0000000000E+00
      0.0000000000E+00
      0.1128919252E-01        0.7615963056E-01        0.0000000000E+00        0.0000000000E+00        0.4290815107E-02        0.1072703777E+04        0.1000000000E+02        0.3000000000E+03        0.0000000000E+00
      0.0000000000E+00
      0.8495038733E-02        0.7928554477E-01        0.0000000000E+00        0.0000000000E+00        0.4290009595E-02        0.1072502399E+04        0.1000000000E+02        0.3000000000E+03        0.0000000000E+00
      0.0000000000E+00
      0.1446361052E-01        0.7661713074E-01        0.0000000000E+00        0.0000000000E+00        0.4290697271E-02        0.1072674318E+04        0.1000000000E+02        0.3000000000E+03        0.0000000000E+00
      0.0000000000E+00
      0.1255451256E-01        0.7256660604E-01        0.0000000000E+00        0.0000000000E+00        0.4291739868E-02        0.1072934967E+04        0.1000000000E+02        0.3000000000E+03        0.0000000000E+00
      0.0000000000E+00
      0.1087470851E-01        0.7328769389E-01        0.0000000000E+00        0.0000000000E+00        0.4291554372E-02        0.1072888593E+04        0.1000000000E+02        0.3000000000E+03        0.0000000000E+00
      0.0000000000E+00
      0.1655448538E-01        0.7669259068E-01        0.0000000000E+00        0.0000000000E+00        0.4290677833E-02        0.1072669458E+04        0.1000000000E+02        0.3000000000E+03        0.0000000000E+00
      0.0000000000E+00
      0.1577926679E-01        0.7487113170E-01        0.0000000000E+00        0.0000000000E+00        0.4291146874E-02        0.1072786719E+04        0.1000000000E+02        0.3000000000E+03        0.0000000000E+00
      0.0000000000E+00
      0.1763522374E-01        0.7462967890E-01        0.0000000000E+00        0.0000000000E+00        0.4291209027E-02        0.1072802257E+04        0.1000000000E+02        0.3000000000E+03        0.0000000000E+00
      0.0000000000E+00
      0.1702717821E-01        0.7904052856E-01        0.0000000000E+00        0.0000000000E+00        0.4290072766E-02        0.1072518191E+04        0.1000000000E+02        0.3000000000E+03        0.0000000000E+00
      0.0000000000E+00
      0.2025495492E-01        0.3604338471E-02        0.0000000000E+00        0.0000000000E+00        0.4309261611E-02        0.1077315403E+04        0.1000000000E+02        0.3000000000E+03        0.0000000000E+00
      0.0000000000E+00
      0.1843181045E-01        0.9795076458E-03        0.0000000000E+00        0.0000000000E+00        0.4309920139E-02        0.1077480035E+04        0.1000000000E+02        0.3000000000E+03        0.0000000000E+00
      0.0000000000E+00
      0.1721692991E-01        0.5201183618E-02        0.0000000000E+00        0.0000000000E+00        0.4308860693E-02        0.1077215173E+04        0.1000000000E+02        0.3000000000E+03        0.0000000000E+00
      0.0000000000E+00
      0.1682955220E-01        0.3335195364E-02        0.0000000000E+00        0.0000000000E+00        0.4309329162E-02        0.1077332291E+04        0.1000000000E+02        0.3000000000E+03        0.0000000000E+00
      0.0000000000E+00
      0.1294814114E-01        0.3624154397E-02        0.0000000000E+00        0.0000000000E+00        0.4309256637E-02        0.1077314159E+04        0.1000000000E+02        0.3000000000E+03        0.0000000000E+00
      0.0000000000E+00
      0.1481904060E-01        0.3249291674E-02        0.0000000000E+00        0.0000000000E+00        0.4309350722E-02        0.1077337680E+04        0.1000000000E+02        0.3000000000E+03        0.0000000000E+00
      0.0000000000E+00
      0.8257631086E-02        0.9434277911E-03        0.0000000000E+00        0.0000000000E+00        0.4309929186E-02        0.1077482297E+04        0.1000000000E+02        0.3000000000E+03        0.0000000000E+00
      0.0000000000E+00
      0.1186943423E-01        0.2087142965E-02        0.0000000000E+00        0.0000000000E+00        0.4309642324E-02        0.1077410581E+04        0.1000000000E+02        0.3000000000E+03        0.0000000000E+00
      0.0000000000E+00
      0.8155219078E-02        0.2976388634E-02        0.0000000000E+00        0.0000000000E+00        0.4309419208E-02        0.1077354802E+04        0.1000000000E+02        0.3000000000E+03        0.0000000000E+00
      0.0000000000E+00
      0.8188507460E-02        0.9066200333E-02        0.0000000000E+00        0.0000000000E+00        0.4307889379E-02        0.1076972345E+04        0.1000000000E+02        0.3000000000E+03        0.0000000000E+00
      0.0000000000E+00
      0.8050398297E-02        0.6736269351E-02        0.0000000000E+00        0.0000000000E+00        0.4308475069E-02        0.1077118767E+04        0.1000000000E+02        0.3000000000E+03        0.0000000000E+00
      0.0000000000E+00
      0.8385298903E-02        0.1688444245E-01        0.0000000000E+00        0.0000000000E+00        0.4305920559E-02        0.1076480140E+04        0.1000000000E+02        0.3000000000E+03        0.0000000000E+00
      0.0000000000E+00
      0.8268976939E-02        0.1062561646E-01        0.0000000000E+00        0.0000000000E+00        0.4307497112E-02        0.1076874278E+04        0.1000000000E+02        0.3000000000E+03        0.0000000000E+00
      0.0000000000E+00
      0.8047286317E-02        0.2320306774E-01        0.0000000000E+00        0.0000000000E+00        0.4304325421E-02        0.1076081355E+04        0.1000000000E+02        0.3000000000E+03        0.0000000000E+00
      0.0000000000E+00
      0.8133267157E-02        0.2085159166E-01        0.0000000000E+00        0.0000000000E+00        0.4304919466E-02        0.1076229866E+04        0.1000000000E+02        0.3000000000E+03        0.0000000000E+00
      0.0000000000E+00
      0.8247651206E-02        0.2873706948E-01        0.0000000000E+00        0.0000000000E+00        0.4302925443E-02        0.1075731361E+04        0.1000000000E+02        0.3000000000E+03        0.0000000000E+00
      0.0000000000E+00
      0.8180588436E-02        0.3098331005E-01        0.0000000000E+00        0.0000000000E+00        0.4302356413E-02        0.1075589103E+04        0.1000000000E+02        0.3000000000E+03        0.0000000000E+00
      0.0000000000E+00
      0.8280163446E-02        0.3485732226E-01        0.0000000000E+00        0.0000000000E+00        0.4301373966E-02        0.1075343492E+04        0.1000000000E+02        0.3000000000E+03        0.0000000000E+00
      0.0000000000E+00
      0.8017588669E-02        0.3962331718E-01        0.0000000000E+00        0.0000000000E+00        0.4300163463E-02        0.1075040866E+04        0.1000000000E+02        0.3000000000E+03        0.0000000000E+00
      0.0000000000E+00
      0.1074758997E-01        0.3931893461E-01        0.0000000000E+00        0.0000000000E+00        0.4300240834E-02        0.1075060208E+04        0.1000000000E+02        0.3000000000E+03        0.0000000000E+00
      0.0000000000E+00
      0.8152669596E-02        0.4282873712E-01        0.0000000000E+00        0.0000000000E+00        0.4299348175E-02        0.1074837044E+04        0.1000000000E+02        0.3000000000E+03        0.0000000000E+00
      0.0000000000E+00
      0.8374961051E-02        0.4440752746E-01        0.0000000000E+00        0.0000000000E+00        0.4298946274E-02        0.1074736568E+04        0.1000000000E+02        0.3000000000E+03        0.0000000000E+00
      0.0000000000E+00
      0.8366724534E-02        0.4917493744E-01        0.0000000000E+00        0.0000000000E+00        0.4297731298E-02        0.1074432825E+04        0.1000000000E+02        0.3000000000E+03        0.0000000000E+00
      0.0000000000E+00
      0.8321554170E-02        0.5228808614E-01        0.0000000000E+00        0.0000000000E+00        0.4296936798E-02        0.1074234199E+04        0.1000000000E+02        0.3000000000E+03        0.0000000000E+00
      0.0000000000E+00
      0.8136648207E-02        0.6030794519E-01        0.0000000000E+00        0.0000000000E+00        0.4294885996E-02        0.1073721499E+04        0.1000000000E+02        0.3000000000E+03        0.0000000000E+00
      0.0000000000E+00
      0.8173066513E-02        0.5550224073E-01        0.0000000000E+00        0.0000000000E+00        0.4296115594E-02        0.1074028899E+04        0.1000000000E+02        0.3000000000E+03        0.0000000000E+00
      0.0000000000E+00
      0.8126764782E-02        0.6509519132E-01        0.0000000000E+00        0.0000000000E+00        0.4293659017E-02        0.1073414754E+04        0.1000000000E+02        0.3000000000E+03        0.0000000000E+00
      0.0000000000E+00
      0.8295660940E-02        0.5950971379E-01        0.0000000000E+00        0.0000000000E+00        0.4295090380E-02        0.1073772595E+04        0.1000000000E+02        0.3000000000E+03        0.0000000000E+00
      0.0000000000E+00
      0.8068158885E-02        0.7005721188E-01        0.0000000000E+00        0.0000000000E+00        0.4292385019E-02        0.1073096255E+04        0.1000000000E+02        0.3000000000E+03        0.0000000000E+00
      0.0000000000E+00
      0.8345850426E-02        0.7316371433E-01        0.0000000000E+00        0.0000000000E+00        0.4291586269E-02        0.1072896567E+04        0.1000000000E+02        0.3000000000E+03        0.0000000000E+00
      0.0000000000E+00
      0.8302711293E-02        0.7628726646E-01        0.0000000000E+00        0.0000000000E+00        0.4290782234E-02        0.1072695559E+04        0.1000000000E+02        0.3000000000E+03        0.0000000000E+00
      0.0000000000E+00
      0.8178810539E-02        0.7393727454E-01        0.0000000000E+00        0.0000000000E+00        0.4291387231E-02        0.1072846808E+04        0.1000000000E+02        0.3000000000E+03        0.0000000000E+00
      0.0000000000E+00
      0.8341550795E-02        0.7900611578E-01        0.0000000000E+00        0.0000000000E+00        0.4290081638E-02        0.1072520409E+04        0.1000000000E+02        0.3000000000E+03        0.0000000000E+00
      0.0000000000E+00
      0.1235195377E-01        0.7901679284E-01        0.0000000000E+00        0.0000000000E+00        0.4290078885E-02        0.1072519721E+04        0.1000000000E+02        0.3000000000E+03        0.0000000000E+00
      0.0000000000E+00
      0.1381944729E-01        0.7909442853E-01        0.0000000000E+00        0.0000000000E+00        0.4290058870E-02        0.1072514717E+04        0.1000000000E+02        0.3000000000E+03        0.0000000000E+00
      0.0000000000E+00
      0.1817278394E-01        0.7639066015E-01        0.0000000000E+00        0.0000000000E+00        0.4290755604E-02        0.1072688901E+04        0.1000000000E+02        0.3000000000E+03        0.0000000000E+00
      0.0000000000E+00
      0.1112218233E-01        0.7886386963E-01        0.0000000000E+00        0.0000000000E+00        0.4290118309E-02        0.1072529577E+04        0.1000000000E+02        0.3000000000E+03        0.0000000000E+00
      0.0000000000E+00
      0.1100217213E-01        0.7480338388E-01        0.0000000000E+00        0.0000000000E+00        0.4291164314E-02        0.1072791078E+04        0.1000000000E+02        0.3000000000E+03        0.0000000000E+00
      0.0000000000E+00
      0.8676345711E-02        0.8776814938E-01        0.0000000000E+00        0.0000000000E+00        0.4287819143E-02        0.1071954786E+04        0.1000000000E+02        0.3000000000E+03        0.0000000000E+00
      0.0000000000E+00
      0.1837508390E-01        0.7905909716E-01        0.0000000000E+00        0.0000000000E+00        0.4290067979E-02        0.1072516995E+04        0.1000000000E+02        0.3000000000E+03        0.0000000000E+00
      0.0000000000E+00
      0.1465889880E-02       -0.9491703309E-02        0.0000000000E+00        0.0000000000E+00        0.4312541205E-02        0.1078135301E+04        0.1000000000E+02        0.3000000000E+03        0.0000000000E+00
      0.0000000000E+00
      0.2124425064E-01        0.1046583590E-02        0.0000000000E+00        0.0000000000E+00        0.4309903318E-02        0.1077475829E+04        0.1000000000E+02        0.3000000000E+03        0.0000000000E+00
      0.0000000000E+00
      0.2269509516E-01        0.1121818626E-02        0.0000000000E+00        0.0000000000E+00        0.4309884450E-02        0.1077471113E+04        0.1000000000E+02        0.3000000000E+03        0.0000000000E+00
      0.0000000000E+00
      0.1802899802E-01        0.6966736034E-02        0.0000000000E+00        0.0000000000E+00        0.4308417157E-02        0.1077104289E+04        0.1000000000E+02        0.3000000000E+03        0.0000000000E+00
      0.0000000000E+00
      0.1380481324E-01        0.7009845388E-02        0.0000000000E+00        0.0000000000E+00        0.4308406323E-02        0.1077101581E+04        0.1000000000E+02        0.3000000000E+03        0.0000000000E+00
      0.0000000000E+00