title="Starting Config"
 variables = x, y, vx, vy, mass, rho, mu, Temp, surf_normx, surf_normy
ZONE T="Real Particles",F=Point,C=Blue
      0.1162682229E-02        0.1010975301E-02        0.0000000000E+00        0.0000000000E+00        0.4309912247E-02        0.1077478062E+04        0.1000000000E+02        0.3000000000E+03        0.0000000000E+00
      0.0000000000E+00
      0.1095584987E-02        0.3041259465E-02        0.0000000000E+00        0.0000000000E+00        0.4309402929E-02        0.1077350732E+04        0.1000000000E+02        0.3000000000E+03        0.0000000000E+00
      0.0000000000E+00
      0.1089703516E-02        0.5026162423E-02        0.0000000000E+00        0.0000000000E+00        0.4308904646E-02        0.1077226162E+04        0.1000000000E+02        0.3000000000E+03        0.0000000000E+00
      0.0000000000E+00
      0.1070458057E-02        0.7003737040E-02        0.0000000000E+00        0.0000000000E+00        0.4308407858E-02        0.1077101965E+04        0.1000000000E+02        0.3000000000E+03        0.0000000000E+00
      0.0000000000E+00
      0.1060280346E-02        0.9020549882E-02        0.0000000000E+00        0.0000000000E+00        0.4307900860E-02        0.1076975215E+04        0.1000000000E+02        0.3000000000E+03        0.0000000000E+00
      0.0000000000E+00
      0.1048617959E-02        0.1102019114E-01        0.0000000000E+00        0.0000000000E+00        0.4307397824E-02        0.1076849456E+04        0.1000000000E+02        0.3000000000E+03        0.0000000000E+00
      0.0000000000E+00
      0.1061643974E-02        0.1301956422E-01        0.0000000000E+00        0.0000000000E+00        0.4306894503E-02        0.1076723626E+04        0.1000000000E+02        0.3000000000E+03        0.0000000000E+00
      0.0000000000E+00
      0.1061534376E-02        0.1701707971E-01        0.0000000000E+00        0.0000000000E+00        0.4305887111E-02        0.1076471778E+04        0.1000000000E+02        0.3000000000E+03        0.0000000000E+00
      0.0000000000E+00
      0.1036568012E-02        0.1501847076E-01        0.0000000000E+00        0.0000000000E+00        0.4306390946E-02        0.1076597736E+04        0.1000000000E+02        0.3000000000E+03        0.0000000000E+00
      0.0000000000E+00
      0.1056385452E-02        0.1901690366E-01        0.0000000000E+00        0.0000000000E+00        0.4305382615E-02        0.1076345654E+04        0.1000000000E+02        0.3000000000E+03        0.0000000000E+00
      0.0000000000E+00
      0.1088915522E-02        0.2101671010E-01        0.0000000000E+00        0.0000000000E+00        0.4304877769E-02        0.1076219442E+04        0.1000000000E+02        0.3000000000E+03        0.0000000000E+00
      0.0000000000E+00
      0.1061923184E-02        0.2501760764E-01        0.0000000000E+00        0.0000000000E+00        0.4303866684E-02        0.1075966671E+04        0.1000000000E+02        0.3000000000E+03        0.0000000000E+00
      0.0000000000E+00
      0.1046006942E-02        0.2701517734E-01        0.0000000000E+00        0.0000000000E+00        0.4303361336E-02        0.1075840334E+04        0.1000000000E+02        0.3000000000E+03        0.0000000000E+00
      0.0000000000E+00
      0.1038897687E-02        0.2301823143E-01        0.0000000000E+00        0.0000000000E+00        0.4304372134E-02        0.1076093033E+04        0.1000000000E+02        0.3000000000E+03        0.0000000000E+00
      0.0000000000E+00
      0.1051020618E-02        0.2901446287E-01        0.0000000000E+00        0.0000000000E+00        0.4302855196E-02        0.1075713799E+04        0.1000000000E+02        0.3000000000E+03        0.0000000000E+00
      0.0000000000E+00
      0.1037797019E-02        0.3301448383E-01        0.0000000000E+00        0.0000000000E+00        0.4301841477E-02        0.1075460369E+04        0.1000000000E+02        0.3000000000E+03        0.0000000000E+00
      0.0000000000E+00
      0.1040581869E-02        0.3501293765E-01        0.0000000000E+00        0.0000000000E+00        0.4301334474E-02        0.1075333619E+04        0.1000000000E+02        0.3000000000E+03        0.0000000000E+00
      0.0000000000E+00
      0.1094591752E-02        0.3900522844E-01        0.0000000000E+00        0.0000000000E+00        0.4300320565E-02        0.1075080141E+04        0.1000000000E+02        0.3000000000E+03        0.0000000000E+00
      0.0000000000E+00
      0.1036868935E-02        0.4099932570E-01        0.0000000000E+00        0.0000000000E+00        0.4299813594E-02        0.1074953398E+04        0.1000000000E+02        0.3000000000E+03        0.0000000000E+00
      0.0000000000E+00
      0.1032564045E-02        0.3700860490E-01        0.0000000000E+00        0.0000000000E+00        0.4300827821E-02        0.1075206955E+04        0.1000000000E+02        0.3000000000E+03        0.0000000000E+00
      0.0000000000E+00
      0.1059348261E-02        0.4299005983E-01        0.0000000000E+00        0.0000000000E+00        0.4299307119E-02        0.1074826780E+04        0.1000000000E+02        0.3000000000E+03        0.0000000000E+00
      0.0000000000E+00
      0.1034471926E-02        0.4698050114E-01        0.0000000000E+00        0.0000000000E+00        0.4298290807E-02        0.1074572702E+04        0.1000000000E+02        0.3000000000E+03        0.0000000000E+00
      0.0000000000E+00
      0.1037221921E-02        0.4898196329E-01        0.0000000000E+00        0.0000000000E+00        0.4297780518E-02        0.1074445129E+04        0.1000000000E+02        0.3000000000E+03        0.0000000000E+00
      0.0000000000E+00
      0.1088576519E-02        0.3101347549E-01        0.0000000000E+00        0.0000000000E+00        0.4302348769E-02        0.1075587192E+04        0.1000000000E+02        0.3000000000E+03        0.0000000000E+00
      0.0000000000E+00
      0.1062468849E-02        0.4498260039E-01        0.0000000000E+00        0.0000000000E+00        0.4298799825E-02        0.1074699956E+04        0.1000000000E+02        0.3000000000E+03        0.0000000000E+00
      0.0000000000E+00
      0.1061108580E-02        0.5098298818E-01        0.0000000000E+00        0.0000000000E+00        0.4297269976E-02        0.1074317494E+04        0.1000000000E+02        0.3000000000E+03        0.0000000000E+00
      0.0000000000E+00
      0.1049880463E-02        0.5298191324E-01        0.0000000000E+00        0.0000000000E+00        0.4296759607E-02        0.1074189902E+04        0.1000000000E+02        0.3000000000E+03        0.0000000000E+00
      0.0000000000E+00
      0.1058346568E-02        0.5498133447E-01        0.0000000000E+00        0.0000000000E+00        0.4296248747E-02        0.1074062187E+04        0.1000000000E+02        0.3000000000E+03        0.0000000000E+00
      0.0000000000E+00
      0.1059370932E-02        0.5898210926E-01        0.0000000000E+00        0.0000000000E+00        0.4295225438E-02        0.1073806360E+04        0.1000000000E+02        0.3000000000E+03        0.0000000000E+00
      0.0000000000E+00
      0.1049494004E-02        0.6098171282E-01        0.0000000000E+00        0.0000000000E+00        0.4294713435E-02        0.1073678359E+04        0.1000000000E+02        0.3000000000E+03        0.0000000000E+00
      0.0000000000E+00
      0.1094505963E-02        0.6298374718E-01        0.0000000000E+00        0.0000000000E+00        0.4294200443E-02        0.1073550111E+04        0.1000000000E+02        0.3000000000E+03        0.0000000000E+00
      0.0000000000E+00
      0.1069071840E-02        0.6498531077E-01        0.0000000000E+00        0.0000000000E+00        0.4293687203E-02        0.1073421801E+04        0.1000000000E+02        0.3000000000E+03        0.0000000000E+00
      0.0000000000E+00
      0.1047095402E-02        0.5698239246E-01        0.0000000000E+00        0.0000000000E+00        0.4295737104E-02        0.1073934276E+04        0.1000000000E+02        0.3000000000E+03        0.0000000000E+00
      0.0000000000E+00
      0.1050860737E-02        0.6698705699E-01        0.0000000000E+00        0.0000000000E+00        0.4293173549E-02        0.1073293387E+04        0.1000000000E+02        0.3000000000E+03        0.0000000000E+00
      0.0000000000E+00
      0.1089608456E-02        0.6898489609E-01        0.0000000000E+00        0.0000000000E+00        0.4292660528E-02        0.1073165132E+04        0.1000000000E+02        0.3000000000E+03        0.0000000000E+00
      0.0000000000E+00
      0.1055753176E-02        0.7098176931E-01        0.0000000000E+00        0.0000000000E+00        0.4292147388E-02        0.1073036847E+04        0.1000000000E+02        0.3000000000E+03        0.0000000000E+00
      0.0000000000E+00
      0.1097123066E-02        0.7497202899E-01        0.0000000000E+00        0.0000000000E+00        0.4291120900E-02        0.1072780225E+04        0.1000000000E+02        0.3000000000E+03        0.0000000000E+00
      0.0000000000E+00
      0.1056773041E-02        0.7695283074E-01        0.0000000000E+00        0.0000000000E+00        0.4290610794E-02        0.1072652699E+04        0.1000000000E+02        0.3000000000E+03        0.0000000000E+00
      0.0000000000E+00
      0.1159727498E-02        0.7899018052E-01        0.0000000000E+00        0.0000000000E+00        0.4290085746E-02        0.1072521437E+04        0.1000000000E+02        0.3000000000E+03        0.0000000000E+00
      0.0000000000E+00
      0.3040014523E-02        0.1112055109E-02        0.0000000000E+00        0.0000000000E+00        0.4309886899E-02        0.1077471725E+04        0.1000000000E+02        0.3000000000E+03        0.0000000000E+00
      0.0000000000E+00
      0.1092526733E-02        0.7299841145E-01        0.0000000000E+00        0.0000000000E+00        0.4291628794E-02        0.1072907199E+04        0.1000000000E+02        0.3000000000E+03        0.0000000000E+00
      0.0000000000E+00
      0.3051039491E-02        0.3212749381E-02        0.0000000000E+00        0.0000000000E+00        0.4309359893E-02        0.1077339973E+04        0.1000000000E+02        0.3000000000E+03        0.0000000000E+00
      0.0000000000E+00
      0.3119399109E-02        0.5232767587E-02        0.0000000000E+00        0.0000000000E+00        0.4308852761E-02        0.1077213190E+04        0.1000000000E+02        0.3000000000E+03        0.0000000000E+00
      0.0000000000E+00
      0.3058333984E-02        0.7207206762E-02        0.0000000000E+00        0.0000000000E+00        0.4308356725E-02        0.1077089181E+04        0.1000000000E+02        0.3000000000E+03        0.0000000000E+00
      0.0000000000E+00
      0.3075865141E-02        0.9213916166E-02        0.0000000000E+00        0.0000000000E+00        0.4307852231E-02        0.1076963058E+04        0.1000000000E+02        0.3000000000E+03        0.0000000000E+00
      0.0000000000E+00
      0.3079512263E-02        0.1118586451E-01        0.0000000000E+00        0.0000000000E+00        0.4307356131E-02        0.1076839033E+04        0.1000000000E+02        0.3000000000E+03        0.0000000000E+00
      0.0000000000E+00
      0.3091943882E-02        0.1316341859E-01        0.0000000000E+00        0.0000000000E+00        0.4306858275E-02        0.1076714569E+04        0.1000000000E+02        0.3000000000E+03        0.0000000000E+00
      0.0000000000E+00
      0.3089494725E-02        0.1712303939E-01        0.0000000000E+00        0.0000000000E+00        0.4305860389E-02        0.1076465097E+04        0.1000000000E+02        0.3000000000E+03        0.0000000000E+00
      0.0000000000E+00
      0.3061122849E-02        0.1911350630E-01        0.0000000000E+00        0.0000000000E+00        0.4305358236E-02        0.1076339559E+04        0.1000000000E+02        0.3000000000E+03        0.0000000000E+00
      0.0000000000E+00
      0.3095205825E-02        0.2111001464E-01        0.0000000000E+00        0.0000000000E+00        0.4304854205E-02        0.1076213551E+04        0.1000000000E+02        0.3000000000E+03        0.0000000000E+00
      0.0000000000E+00
      0.3070411029E-02        0.1514145801E-01        0.0000000000E+00        0.0000000000E+00        0.4306359952E-02        0.1076589988E+04        0.1000000000E+02        0.3000000000E+03        0.0000000000E+00
      0.0000000000E+00
      0.3051000063E-02        0.2310574626E-01        0.0000000000E+00        0.0000000000E+00        0.4304350017E-02        0.1076087504E+04        0.1000000000E+02        0.3000000000E+03        0.0000000000E+00
      0.0000000000E+00
      0.3092139263E-02        0.2509763979E-01        0.0000000000E+00        0.0000000000E+00        0.4303846444E-02        0.1075961611E+04        0.1000000000E+02        0.3000000000E+03        0.0000000000E+00
      0.0000000000E+00
      0.3065553718E-02        0.2907600534E-01        0.0000000000E+00        0.0000000000E+00        0.4302839611E-02        0.1075709903E+04        0.1000000000E+02        0.3000000000E+03        0.0000000000E+00
      0.0000000000E+00
      0.3097968487E-02        0.3106922595E-01        0.0000000000E+00        0.0000000000E+00        0.4302334640E-02        0.1075583660E+04        0.1000000000E+02        0.3000000000E+03        0.0000000000E+00
      0.0000000000E+00
      0.3063444517E-02        0.3305354687E-01        0.0000000000E+00        0.0000000000E+00        0.4301831570E-02        0.1075457893E+04        0.1000000000E+02        0.3000000000E+03        0.0000000000E+00
      0.0000000000E+00
      0.3059902235E-02        0.3701735132E-01        0.0000000000E+00        0.0000000000E+00        0.4300825599E-02        0.1075206400E+04        0.1000000000E+02        0.3000000000E+03        0.0000000000E+00
      0.0000000000E+00
      0.3058874026E-02        0.4100252384E-01        0.0000000000E+00        0.0000000000E+00        0.4299812780E-02        0.1074953195E+04        0.1000000000E+02        0.3000000000E+03        0.0000000000E+00
      0.0000000000E+00
      0.3091028424E-02        0.4299710763E-01        0.0000000000E+00        0.0000000000E+00        0.4299305325E-02        0.1074826331E+04        0.1000000000E+02        0.3000000000E+03        0.0000000000E+00
      0.0000000000E+00
      0.3092454870E-02        0.3503398496E-01        0.0000000000E+00        0.0000000000E+00        0.4301329133E-02        0.1075332283E+04        0.1000000000E+02        0.3000000000E+03        0.0000000000E+00
      0.0000000000E+00
      0.3073228387E-02        0.2708489273E-01        0.0000000000E+00        0.0000000000E+00        0.4303343693E-02        0.1075835923E+04        0.1000000000E+02        0.3000000000E+03        0.0000000000E+00
      0.0000000000E+00
      0.3109612304E-02        0.3900702956E-01        0.0000000000E+00        0.0000000000E+00        0.4300320108E-02        0.1075080027E+04        0.1000000000E+02        0.3000000000E+03        0.0000000000E+00
      0.0000000000E+00
      0.3092330928E-02        0.4498252104E-01        0.0000000000E+00        0.0000000000E+00        0.4298799846E-02        0.1074699961E+04        0.1000000000E+02        0.3000000000E+03        0.0000000000E+00
      0.0000000000E+00
      0.3076136620E-02        0.4893776059E-01        0.0000000000E+00        0.0000000000E+00        0.4297791791E-02        0.1074447948E+04        0.1000000000E+02        0.3000000000E+03        0.0000000000E+00
      0.0000000000E+00
      0.3088188303E-02        0.5091583223E-01        0.0000000000E+00        0.0000000000E+00        0.4297287117E-02        0.1074321779E+04        0.1000000000E+02        0.3000000000E+03        0.0000000000E+00
      0.0000000000E+00
      0.3072302333E-02        0.5289969046E-01        0.0000000000E+00        0.0000000000E+00        0.4296780608E-02        0.1074195152E+04        0.1000000000E+02        0.3000000000E+03        0.0000000000E+00
      0.0000000000E+00
      0.3082909793E-02        0.5488689242E-01        0.0000000000E+00        0.0000000000E+00        0.4296272886E-02        0.1074068221E+04        0.1000000000E+02        0.3000000000E+03        0.0000000000E+00
      0.0000000000E+00
      0.3069569844E-02        0.5687354934E-01        0.0000000000E+00        0.0000000000E+00        0.4295764943E-02        0.1073941236E+04        0.1000000000E+02        0.3000000000E+03        0.0000000000E+00
      0.0000000000E+00
      0.3087650751E-02        0.5885926625E-01        0.0000000000E+00        0.0000000000E+00        0.4295256881E-02        0.1073814220E+04        0.1000000000E+02        0.3000000000E+03        0.0000000000E+00
      0.0000000000E+00
      0.3073859579E-02        0.4696084909E-01        0.0000000000E+00        0.0000000000E+00        0.4298295815E-02        0.1074573954E+04        0.1000000000E+02        0.3000000000E+03        0.0000000000E+00
      0.0000000000E+00
      0.3089355498E-02        0.6284526143E-01        0.0000000000E+00        0.0000000000E+00        0.4294235940E-02        0.1073558985E+04        0.1000000000E+02        0.3000000000E+03        0.0000000000E+00
      0.0000000000E+00
      0.3057436487E-02        0.6085093937E-01        0.0000000000E+00        0.0000000000E+00        0.4294746931E-02        0.1073686733E+04        0.1000000000E+02        0.3000000000E+03        0.0000000000E+00
      0.0000000000E+00
      0.3073178898E-02        0.6484079302E-01        0.0000000000E+00        0.0000000000E+00        0.4293724273E-02        0.1073431068E+04        0.1000000000E+02        0.3000000000E+03        0.0000000000E+00
      0.0000000000E+00
      0.3056189860E-02        0.6683818089E-01        0.0000000000E+00        0.0000000000E+00        0.4293211763E-02        0.1073302941E+04        0.1000000000E+02        0.3000000000E+03        0.0000000000E+00
      0.0000000000E+00
      0.3111101935E-02        0.6882585643E-01        0.0000000000E+00        0.0000000000E+00        0.4292701381E-02        0.1073175345E+04        0.1000000000E+02        0.3000000000E+03        0.0000000000E+00
      0.0000000000E+00
      0.3051506640E-02        0.7080703249E-01        0.0000000000E+00        0.0000000000E+00        0.4292192305E-02        0.1073048076E+04        0.1000000000E+02        0.3000000000E+03        0.0000000000E+00
      0.0000000000E+00
      0.3067410990E-02        0.7282198018E-01        0.0000000000E+00        0.0000000000E+00        0.4291674180E-02        0.1072918545E+04        0.1000000000E+02        0.3000000000E+03        0.0000000000E+00
      0.0000000000E+00
      0.3047850134E-02        0.7680227780E-01        0.0000000000E+00        0.0000000000E+00        0.4290649578E-02        0.1072662395E+04        0.1000000000E+02        0.3000000000E+03        0.0000000000E+00
      0.0000000000E+00
      0.3037337923E-02        0.7888349940E-01        0.0000000000E+00        0.0000000000E+00        0.4290113249E-02        0.1072528312E+04        0.1000000000E+02        0.3000000000E+03        0.0000000000E+00
      0.0000000000E+00
      0.3136330523E-02        0.7479721808E-01        0.0000000000E+00        0.0000000000E+00        0.4291165901E-02        0.1072791475E+04        0.1000000000E+02        0.3000000000E+03        0.0000000000E+00
      0.0000000000E+00
      0.5017429250E-02        0.1092627815E-02        0.0000000000E+00        0.0000000000E+00        0.4309891771E-02        0.1077472943E+04        0.1000000000E+02        0.3000000000E+03        0.0000000000E+00
      0.0000000000E+00
      0.5089058167E-02        0.3092813153E-02        0.0000000000E+00        0.0000000000E+00        0.4309389992E-02        0.1077347498E+04        0.1000000000E+02        0.3000000000E+03        0.0000000000E+00
      0.0000000000E+00
      0.5098542876E-02        0.7084492031E-02        0.0000000000E+00        0.0000000000E+00        0.4308387565E-02        0.1077096891E+04        0.1000000000E+02        0.3000000000E+03        0.0000000000E+00
      0.0000000000E+00
      0.5117149304E-02        0.9094603659E-02        0.0000000000E+00        0.0000000000E+00        0.4307882237E-02        0.1076970559E+04        0.1000000000E+02        0.3000000000E+03        0.0000000000E+00
      0.0000000000E+00
      0.5166469452E-02        0.5108149715E-02        0.0000000000E+00        0.0000000000E+00        0.4308884057E-02        0.1077221014E+04        0.1000000000E+02        0.3000000000E+03        0.0000000000E+00
      0.0000000000E+00
      0.5125661224E-02        0.1108831592E-01        0.0000000000E+00        0.0000000000E+00        0.4307380680E-02        0.1076845170E+04        0.1000000000E+02        0.3000000000E+03        0.0000000000E+00
      0.0000000000E+00
      0.5128929824E-02        0.1308932371E-01        0.0000000000E+00        0.0000000000E+00        0.4306876935E-02        0.1076719234E+04        0.1000000000E+02        0.3000000000E+03        0.0000000000E+00
      0.0000000000E+00
      0.5110934723E-02        0.1509274000E-01        0.0000000000E+00        0.0000000000E+00        0.4306372229E-02        0.1076593057E+04        0.1000000000E+02        0.3000000000E+03        0.0000000000E+00
      0.0000000000E+00
      0.5125896482E-02        0.1709103930E-01        0.0000000000E+00        0.0000000000E+00        0.4305868459E-02        0.1076467115E+04        0.1000000000E+02        0.3000000000E+03        0.0000000000E+00
      0.0000000000E+00
      0.5130457075E-02        0.2108473626E-01        0.0000000000E+00        0.0000000000E+00        0.4304860589E-02        0.1076215147E+04        0.1000000000E+02        0.3000000000E+03        0.0000000000E+00
      0.0000000000E+00
      0.5103607000E-02        0.1908876490E-01        0.0000000000E+00        0.0000000000E+00        0.4305364480E-02        0.1076341120E+04        0.1000000000E+02        0.3000000000E+03        0.0000000000E+00
      0.0000000000E+00
      0.5092225102E-02        0.2308061126E-01        0.0000000000E+00        0.0000000000E+00        0.4304356369E-02        0.1076089092E+04        0.1000000000E+02        0.3000000000E+03        0.0000000000E+00
      0.0000000000E+00
      0.5125489226E-02        0.2507438828E-01        0.0000000000E+00        0.0000000000E+00        0.4303852325E-02        0.1075963081E+04        0.1000000000E+02        0.3000000000E+03        0.0000000000E+00
      0.0000000000E+00
      0.5112850522E-02        0.2706746202E-01        0.0000000000E+00        0.0000000000E+00        0.4303348104E-02        0.1075837026E+04        0.1000000000E+02        0.3000000000E+03        0.0000000000E+00
      0.0000000000E+00
      0.5108496666E-02        0.2905656844E-01        0.0000000000E+00        0.0000000000E+00        0.4302844533E-02        0.1075711133E+04        0.1000000000E+02        0.3000000000E+03        0.0000000000E+00
      0.0000000000E+00
      0.5140090124E-02        0.3104550393E-01        0.0000000000E+00        0.0000000000E+00        0.4302340652E-02        0.1075585163E+04        0.1000000000E+02        0.3000000000E+03        0.0000000000E+00
      0.0000000000E+00
      0.5111260381E-02        0.3303265588E-01        0.0000000000E+00        0.0000000000E+00        0.4301836868E-02        0.1075459217E+04        0.1000000000E+02        0.3000000000E+03        0.0000000000E+00
      0.0000000000E+00
      0.5128785840E-02        0.3501865543E-01        0.0000000000E+00        0.0000000000E+00        0.4301333023E-02        0.1075333256E+04        0.1000000000E+02        0.3000000000E+03        0.0000000000E+00
      0.0000000000E+00
      0.5100499130E-02        0.3700903696E-01        0.0000000000E+00        0.0000000000E+00        0.4300827711E-02        0.1075206928E+04        0.1000000000E+02        0.3000000000E+03        0.0000000000E+00
      0.0000000000E+00
      0.5141737803E-02        0.3900315932E-01        0.0000000000E+00        0.0000000000E+00        0.4300321091E-02        0.1075080273E+04        0.1000000000E+02        0.3000000000E+03        0.0000000000E+00
      0.0000000000E+00
      0.5125663896E-02        0.4298972325E-01        0.0000000000E+00        0.0000000000E+00        0.4299307204E-02        0.1074826801E+04        0.1000000000E+02        0.3000000000E+03        0.0000000000E+00
      0.0000000000E+00
      0.5097296148E-02        0.4099738691E-01        0.0000000000E+00        0.0000000000E+00        0.4299814087E-02        0.1074953522E+04        0.1000000000E+02        0.3000000000E+03        0.0000000000E+00
      0.0000000000E+00
      0.5132734409E-02        0.4498199905E-01        0.0000000000E+00        0.0000000000E+00        0.4298799979E-02        0.1074699995E+04        0.1000000000E+02        0.3000000000E+03        0.0000000000E+00
      0.0000000000E+00
      0.5118076166E-02        0.4697088186E-01        0.0000000000E+00        0.0000000000E+00        0.4298293258E-02        0.1074573315E+04        0.1000000000E+02        0.3000000000E+03        0.0000000000E+00
      0.0000000000E+00
      0.5119316844E-02        0.4895906644E-01        0.0000000000E+00        0.0000000000E+00        0.4297786357E-02        0.1074446589E+04        0.1000000000E+02        0.3000000000E+03        0.0000000000E+00
      0.0000000000E+00
      0.5128537576E-02        0.5095077886E-01        0.0000000000E+00        0.0000000000E+00        0.4297278197E-02        0.1074319549E+04        0.1000000000E+02        0.3000000000E+03        0.0000000000E+00
      0.0000000000E+00
      0.5114214350E-02        0.5294361918E-01        0.0000000000E+00        0.0000000000E+00        0.4296769388E-02        0.1074192347E+04        0.1000000000E+02        0.3000000000E+03        0.0000000000E+00
      0.0000000000E+00
      0.5109153996E-02        0.5693491816E-01        0.0000000000E+00        0.0000000000E+00        0.4295749247E-02        0.1073937312E+04        0.1000000000E+02        0.3000000000E+03        0.0000000000E+00
      0.0000000000E+00
      0.5119815884E-02        0.5493880447E-01        0.0000000000E+00        0.0000000000E+00        0.4296259618E-02        0.1074064904E+04        0.1000000000E+02        0.3000000000E+03        0.0000000000E+00
      0.0000000000E+00
      0.5101090758E-02        0.6092735297E-01        0.0000000000E+00        0.0000000000E+00        0.4294727359E-02        0.1073681840E+04        0.1000000000E+02        0.3000000000E+03        0.0000000000E+00
      0.0000000000E+00
      0.5122655980E-02        0.5893237431E-01        0.0000000000E+00        0.0000000000E+00        0.4295238168E-02        0.1073809542E+04        0.1000000000E+02        0.3000000000E+03        0.0000000000E+00
      0.0000000000E+00
      0.5131624453E-02        0.6292369242E-01        0.0000000000E+00        0.0000000000E+00        0.4294215837E-02        0.1073553959E+04        0.1000000000E+02        0.3000000000E+03        0.0000000000E+00
      0.0000000000E+00
      0.5114899568E-02        0.6491842539E-01        0.0000000000E+00        0.0000000000E+00        0.4293704360E-02        0.1073426090E+04        0.1000000000E+02        0.3000000000E+03        0.0000000000E+00
      0.0000000000E+00
      0.5102870480E-02        0.6691304389E-01        0.0000000000E+00        0.0000000000E+00        0.4293192547E-02        0.1073298137E+04        0.1000000000E+02        0.3000000000E+03        0.0000000000E+00
      0.0000000000E+00
      0.5152746671E-02        0.6891180456E-01        0.0000000000E+00        0.0000000000E+00        0.4292679304E-02        0.1073169826E+04        0.1000000000E+02        0.3000000000E+03        0.0000000000E+00
      0.0000000000E+00
      0.5101303854E-02        0.7090013513E-01        0.0000000000E+00        0.0000000000E+00        0.4292168373E-02        0.1073042093E+04        0.1000000000E+02        0.3000000000E+03        0.0000000000E+00
      0.0000000000E+00
      0.5108020268E-02        0.7291016225E-01        0.0000000000E+00        0.0000000000E+00        0.4291651496E-02        0.1072912874E+04        0.1000000000E+02        0.3000000000E+03        0.0000000000E+00
      0.0000000000E+00
      0.5178787925E-02        0.7489175184E-01        0.0000000000E+00        0.0000000000E+00        0.4291141566E-02        0.1072785391E+04        0.1000000000E+02        0.3000000000E+03        0.0000000000E+00
      0.0000000000E+00
      0.5091998522E-02        0.7690979332E-01        0.0000000000E+00        0.0000000000E+00        0.4290621881E-02        0.1072655470E+04        0.1000000000E+02        0.3000000000E+03        0.0000000000E+00
      0.0000000000E+00
      0.5015080052E-02        0.7890967017E-01        0.0000000000E+00        0.0000000000E+00        0.4290106502E-02        0.1072526625E+04        0.1000000000E+02        0.3000000000E+03        0.0000000000E+00
      0.0000000000E+00
      0.7002530986E-02        0.1072060493E-02        0.0000000000E+00        0.0000000000E+00        0.4309896929E-02        0.1077474232E+04        0.1000000000E+02        0.3000000000E+03        0.0000000000E+00
      0.0000000000E+00
      0.7094855184E-02        0.3023253665E-02        0.0000000000E+00        0.0000000000E+00        0.4309407448E-02        0.1077351862E+04        0.1000000000E+02        0.3000000000E+03        0.0000000000E+00
      0.0000000000E+00
      0.7149877024E-02        0.5043129594E-02        0.0000000000E+00        0.0000000000E+00        0.4308900385E-02        0.1077225096E+04        0.1000000000E+02        0.3000000000E+03        0.0000000000E+00
      0.0000000000E+00
      0.7083143024E-02        0.7028202359E-02        0.0000000000E+00        0.0000000000E+00        0.4308401710E-02        0.1077100428E+04        0.1000000000E+02        0.3000000000E+03        0.0000000000E+00
      0.0000000000E+00
      0.7101984893E-02        0.9044425274E-02        0.0000000000E+00        0.0000000000E+00        0.4307894855E-02        0.1076973714E+04        0.1000000000E+02        0.3000000000E+03        0.0000000000E+00
      0.0000000000E+00