title="Starting Config"
 variables = x, y, vx, vy, mass, rho, mu, Temp, surf_normx, surf_normy
ZONE T="Real Particles",F=Point,C=Blue
      0.8000000000E-03        0.8000000000E-03        0.0000000000E+00        0.0000000000E+00        0.2758377697E-02        0.1077491288E+04        0.1000000000E+02        0.3000000000E+03        0.0000000000E+00
      0.0000000000E+00
      0.8000000000E-03        0.2400000000E-02        0.0000000000E+00        0.0000000000E+00        0.2758120854E-02        0.1077390959E+04        0.1000000000E+02        0.3000000000E+03        0.0000000000E+00
      0.0000000000E+00
      0.8000000000E-03        0.4000000000E-02        0.0000000000E+00        0.0000000000E+00        0.2757863868E-02        0.1077290573E+04        0.1000000000E+02        0.3000000000E+03        0.0000000000E+00
      0.0000000000E+00
      0.8000000000E-03        0.5600000000E-02        0.0000000000E+00        0.0000000000E+00        0.2757606738E-02        0.1077190132E+04        0.1000000000E+02        0.3000000000E+03        0.0000000000E+00
      0.0000000000E+00
      0.8000000000E-03        0.7200000000E-02        0.0000000000E+00        0.0000000000E+00        0.2757349463E-02        0.1077089634E+04        0.1000000000E+02        0.3000000000E+03        0.0000000000E+00
      0.0000000000E+00
      0.8000000000E-03        0.8800000000E-02        0.0000000000E+00        0.0000000000E+00        0.2757092045E-02        0.1076989080E+04        0.1000000000E+02        0.3000000000E+03        0.0000000000E+00
      0.0000000000E+00
      0.8000000000E-03        0.1040000000E-01        0.0000000000E+00        0.0000000000E+00        0.2756834482E-02        0.1076888470E+04        0.1000000000E+02        0.3000000000E+03        0.0000000000E+00
      0.0000000000E+00
      0.8000000000E-03        0.1360000000E-01        0.0000000000E+00        0.0000000000E+00        0.2756318923E-02        0.1076687079E+04        0.1000000000E+02        0.3000000000E+03        0.0000000000E+00
      0.0000000000E+00
      0.8000000000E-03        0.1520000000E-01        0.0000000000E+00        0.0000000000E+00        0.2756060927E-02        0.1076586300E+04        0.1000000000E+02        0.3000000000E+03        0.0000000000E+00
      0.0000000000E+00
      0.8000000000E-03        0.1200000000E-01        0.0000000000E+00        0.0000000000E+00        0.2756576775E-02        0.1076787803E+04        0.1000000000E+02        0.3000000000E+03        0.0000000000E+00
      0.0000000000E+00
      0.8000000000E-03        0.1680000000E-01        0.0000000000E+00        0.0000000000E+00        0.2755802785E-02        0.1076485463E+04        0.1000000000E+02        0.3000000000E+03        0.0000000000E+00
      0.0000000000E+00
      0.8000000000E-03        0.2000000000E-01        0.0000000000E+00        0.0000000000E+00        0.2755286067E-02        0.1076283620E+04        0.1000000000E+02        0.3000000000E+03        0.0000000000E+00
      0.0000000000E+00
      0.8000000000E-03        0.2160000000E-01        0.0000000000E+00        0.0000000000E+00        0.2755027489E-02        0.1076182613E+04        0.1000000000E+02        0.3000000000E+03        0.0000000000E+00
      0.0000000000E+00
      0.8000000000E-03        0.1840000000E-01        0.0000000000E+00        0.0000000000E+00        0.2755544499E-02        0.1076384570E+04        0.1000000000E+02        0.3000000000E+03        0.0000000000E+00
      0.0000000000E+00
      0.8000000000E-03        0.2320000000E-01        0.0000000000E+00        0.0000000000E+00        0.2754768766E-02        0.1076081549E+04        0.1000000000E+02        0.3000000000E+03        0.0000000000E+00
      0.0000000000E+00
      0.8000000000E-03        0.2640000000E-01        0.0000000000E+00        0.0000000000E+00        0.2754250881E-02        0.1075879251E+04        0.1000000000E+02        0.3000000000E+03        0.0000000000E+00
      0.0000000000E+00
      0.8000000000E-03        0.2800000000E-01        0.0000000000E+00        0.0000000000E+00        0.2753991720E-02        0.1075778016E+04        0.1000000000E+02        0.3000000000E+03        0.0000000000E+00
      0.0000000000E+00
      0.8000000000E-03        0.2960000000E-01        0.0000000000E+00        0.0000000000E+00        0.2753732412E-02        0.1075676724E+04        0.1000000000E+02        0.3000000000E+03        0.0000000000E+00
      0.0000000000E+00
      0.8000000000E-03        0.3120000000E-01        0.0000000000E+00        0.0000000000E+00        0.2753472958E-02        0.1075575374E+04        0.1000000000E+02        0.3000000000E+03        0.0000000000E+00
      0.0000000000E+00
      0.8000000000E-03        0.2480000000E-01        0.0000000000E+00        0.0000000000E+00        0.2754509897E-02        0.1075980428E+04        0.1000000000E+02        0.3000000000E+03        0.0000000000E+00
      0.0000000000E+00
      0.8000000000E-03        0.3280000000E-01        0.0000000000E+00        0.0000000000E+00        0.2753213357E-02        0.1075473967E+04        0.1000000000E+02        0.3000000000E+03        0.0000000000E+00
      0.0000000000E+00
      0.8000000000E-03        0.3440000000E-01        0.0000000000E+00        0.0000000000E+00        0.2752953608E-02        0.1075372503E+04        0.1000000000E+02        0.3000000000E+03        0.0000000000E+00
      0.0000000000E+00
      0.8000000000E-03        0.3760000000E-01        0.0000000000E+00        0.0000000000E+00        0.2752433671E-02        0.1075169403E+04        0.1000000000E+02        0.3000000000E+03        0.0000000000E+00
      0.0000000000E+00
      0.8000000000E-03        0.3920000000E-01        0.0000000000E+00        0.0000000000E+00        0.2752173480E-02        0.1075067766E+04        0.1000000000E+02        0.3000000000E+03        0.0000000000E+00
      0.0000000000E+00
      0.8000000000E-03        0.4080000000E-01        0.0000000000E+00        0.0000000000E+00        0.2751913143E-02        0.1074966071E+04        0.1000000000E+02        0.3000000000E+03        0.0000000000E+00
      0.0000000000E+00
      0.8000000000E-03        0.4240000000E-01        0.0000000000E+00        0.0000000000E+00        0.2751652657E-02        0.1074864319E+04        0.1000000000E+02        0.3000000000E+03        0.0000000000E+00
      0.0000000000E+00
      0.8000000000E-03        0.3600000000E-01        0.0000000000E+00        0.0000000000E+00        0.2752693713E-02        0.1075270982E+04        0.1000000000E+02        0.3000000000E+03        0.0000000000E+00
      0.0000000000E+00
      0.8000000000E-03        0.4400000000E-01        0.0000000000E+00        0.0000000000E+00        0.2751392023E-02        0.1074762509E+04        0.1000000000E+02        0.3000000000E+03        0.0000000000E+00
      0.0000000000E+00
      0.8000000000E-03        0.4720000000E-01        0.0000000000E+00        0.0000000000E+00        0.2750870311E-02        0.1074558715E+04        0.1000000000E+02        0.3000000000E+03        0.0000000000E+00
      0.0000000000E+00
      0.8000000000E-03        0.5040000000E-01        0.0000000000E+00        0.0000000000E+00        0.2750348005E-02        0.1074354689E+04        0.1000000000E+02        0.3000000000E+03        0.0000000000E+00
      0.0000000000E+00
      0.8000000000E-03        0.4560000000E-01        0.0000000000E+00        0.0000000000E+00        0.2751131242E-02        0.1074660641E+04        0.1000000000E+02        0.3000000000E+03        0.0000000000E+00
      0.0000000000E+00
      0.8000000000E-03        0.5360000000E-01        0.0000000000E+00        0.0000000000E+00        0.2749825103E-02        0.1074150431E+04        0.1000000000E+02        0.3000000000E+03        0.0000000000E+00
      0.0000000000E+00
      0.8000000000E-03        0.5520000000E-01        0.0000000000E+00        0.0000000000E+00        0.2749563427E-02        0.1074048214E+04        0.1000000000E+02        0.3000000000E+03        0.0000000000E+00
      0.0000000000E+00
      0.8000000000E-03        0.5200000000E-01        0.0000000000E+00        0.0000000000E+00        0.2750086628E-02        0.1074252589E+04        0.1000000000E+02        0.3000000000E+03        0.0000000000E+00
      0.0000000000E+00
      0.8000000000E-03        0.4880000000E-01        0.0000000000E+00        0.0000000000E+00        0.2750609232E-02        0.1074456731E+04        0.1000000000E+02        0.3000000000E+03        0.0000000000E+00
      0.0000000000E+00
      0.8000000000E-03        0.5840000000E-01        0.0000000000E+00        0.0000000000E+00        0.2749039629E-02        0.1073843605E+04        0.1000000000E+02        0.3000000000E+03        0.0000000000E+00
      0.0000000000E+00
      0.8000000000E-03        0.5680000000E-01        0.0000000000E+00        0.0000000000E+00        0.2749301603E-02        0.1073945939E+04        0.1000000000E+02        0.3000000000E+03        0.0000000000E+00
      0.0000000000E+00
      0.8000000000E-03        0.6160000000E-01        0.0000000000E+00        0.0000000000E+00        0.2748515230E-02        0.1073638762E+04        0.1000000000E+02        0.3000000000E+03        0.0000000000E+00
      0.0000000000E+00
      0.8000000000E-03        0.6480000000E-01        0.0000000000E+00        0.0000000000E+00        0.2747990231E-02        0.1073433684E+04        0.1000000000E+02        0.3000000000E+03        0.0000000000E+00
      0.0000000000E+00
      0.8000000000E-03        0.6640000000E-01        0.0000000000E+00        0.0000000000E+00        0.2747727506E-02        0.1073331057E+04        0.1000000000E+02        0.3000000000E+03        0.0000000000E+00
      0.0000000000E+00
      0.8000000000E-03        0.6320000000E-01        0.0000000000E+00        0.0000000000E+00        0.2748252806E-02        0.1073536252E+04        0.1000000000E+02        0.3000000000E+03        0.0000000000E+00
      0.0000000000E+00
      0.8000000000E-03        0.6800000000E-01        0.0000000000E+00        0.0000000000E+00        0.2747464629E-02        0.1073228371E+04        0.1000000000E+02        0.3000000000E+03        0.0000000000E+00
      0.0000000000E+00
      0.8000000000E-03        0.7120000000E-01        0.0000000000E+00        0.0000000000E+00        0.2746938424E-02        0.1073022822E+04        0.1000000000E+02        0.3000000000E+03        0.0000000000E+00
      0.0000000000E+00
      0.8000000000E-03        0.6960000000E-01        0.0000000000E+00        0.0000000000E+00        0.2747201602E-02        0.1073125626E+04        0.1000000000E+02        0.3000000000E+03        0.0000000000E+00
      0.0000000000E+00
      0.8000000000E-03        0.7440000000E-01        0.0000000000E+00        0.0000000000E+00        0.2746411612E-02        0.1072817036E+04        0.1000000000E+02        0.3000000000E+03        0.0000000000E+00
      0.0000000000E+00
      0.8000000000E-03        0.7920000000E-01        0.0000000000E+00        0.0000000000E+00        0.2745620257E-02        0.1072507913E+04        0.1000000000E+02        0.3000000000E+03        0.0000000000E+00
      0.0000000000E+00
      0.8000000000E-03        0.6000000000E-01        0.0000000000E+00        0.0000000000E+00        0.2748777505E-02        0.1073741213E+04        0.1000000000E+02        0.3000000000E+03        0.0000000000E+00
      0.0000000000E+00
      0.8000000000E-03        0.7280000000E-01        0.0000000000E+00        0.0000000000E+00        0.2746675094E-02        0.1072919958E+04        0.1000000000E+02        0.3000000000E+03        0.0000000000E+00
      0.0000000000E+00
      0.8000000000E-03        0.7760000000E-01        0.0000000000E+00        0.0000000000E+00        0.2745884194E-02        0.1072611013E+04        0.1000000000E+02        0.3000000000E+03        0.0000000000E+00
      0.0000000000E+00
      0.8000000000E-03        0.7600000000E-01        0.0000000000E+00        0.0000000000E+00        0.2746147979E-02        0.1072714054E+04        0.1000000000E+02        0.3000000000E+03        0.0000000000E+00
      0.0000000000E+00
      0.2400000000E-02        0.8000000000E-03        0.0000000000E+00        0.0000000000E+00        0.2758377697E-02        0.1077491288E+04        0.1000000000E+02        0.3000000000E+03        0.0000000000E+00
      0.0000000000E+00
      0.2400000000E-02        0.2400000000E-02        0.0000000000E+00        0.0000000000E+00        0.2758120854E-02        0.1077390959E+04        0.1000000000E+02        0.3000000000E+03        0.0000000000E+00
      0.0000000000E+00
      0.2400000000E-02        0.4000000000E-02        0.0000000000E+00        0.0000000000E+00        0.2757863868E-02        0.1077290573E+04        0.1000000000E+02        0.3000000000E+03        0.0000000000E+00
      0.0000000000E+00
      0.2400000000E-02        0.5600000000E-02        0.0000000000E+00        0.0000000000E+00        0.2757606738E-02        0.1077190132E+04        0.1000000000E+02        0.3000000000E+03        0.0000000000E+00
      0.0000000000E+00
      0.2400000000E-02        0.8800000000E-02        0.0000000000E+00        0.0000000000E+00        0.2757092045E-02        0.1076989080E+04        0.1000000000E+02        0.3000000000E+03        0.0000000000E+00
      0.0000000000E+00
      0.2400000000E-02        0.1040000000E-01        0.0000000000E+00        0.0000000000E+00        0.2756834482E-02        0.1076888470E+04        0.1000000000E+02        0.3000000000E+03        0.0000000000E+00
      0.0000000000E+00
      0.2400000000E-02        0.1360000000E-01        0.0000000000E+00        0.0000000000E+00        0.2756318923E-02        0.1076687079E+04        0.1000000000E+02        0.3000000000E+03        0.0000000000E+00
      0.0000000000E+00
      0.2400000000E-02        0.1520000000E-01        0.0000000000E+00        0.0000000000E+00        0.2756060927E-02        0.1076586300E+04        0.1000000000E+02        0.3000000000E+03        0.0000000000E+00
      0.0000000000E+00
      0.2400000000E-02        0.1200000000E-01        0.0000000000E+00        0.0000000000E+00        0.2756576775E-02        0.1076787803E+04        0.1000000000E+02        0.3000000000E+03        0.0000000000E+00
      0.0000000000E+00
      0.2400000000E-02        0.7200000000E-02        0.0000000000E+00        0.0000000000E+00        0.2757349463E-02        0.1077089634E+04        0.1000000000E+02        0.3000000000E+03        0.0000000000E+00
      0.0000000000E+00
      0.2400000000E-02        0.1680000000E-01        0.0000000000E+00        0.0000000000E+00        0.2755802785E-02        0.1076485463E+04        0.1000000000E+02        0.3000000000E+03        0.0000000000E+00
      0.0000000000E+00
      0.2400000000E-02        0.1840000000E-01        0.0000000000E+00        0.0000000000E+00        0.2755544499E-02        0.1076384570E+04        0.1000000000E+02        0.3000000000E+03        0.0000000000E+00
      0.0000000000E+00
      0.2400000000E-02        0.2160000000E-01        0.0000000000E+00        0.0000000000E+00        0.2755027489E-02        0.1076182613E+04        0.1000000000E+02        0.3000000000E+03        0.0000000000E+00
      0.0000000000E+00
      0.2400000000E-02        0.2320000000E-01        0.0000000000E+00        0.0000000000E+00        0.2754768766E-02        0.1076081549E+04        0.1000000000E+02        0.3000000000E+03        0.0000000000E+00
      0.0000000000E+00
      0.2400000000E-02        0.2000000000E-01        0.0000000000E+00        0.0000000000E+00        0.2755286067E-02        0.1076283620E+04        0.1000000000E+02        0.3000000000E+03        0.0000000000E+00
      0.0000000000E+00
      0.2400000000E-02        0.2640000000E-01        0.0000000000E+00        0.0000000000E+00        0.2754250881E-02        0.1075879251E+04        0.1000000000E+02        0.3000000000E+03        0.0000000000E+00
      0.0000000000E+00
      0.2400000000E-02        0.2480000000E-01        0.0000000000E+00        0.0000000000E+00        0.2754509897E-02        0.1075980428E+04        0.1000000000E+02        0.3000000000E+03        0.0000000000E+00
      0.0000000000E+00
      0.2400000000E-02        0.2960000000E-01        0.0000000000E+00        0.0000000000E+00        0.2753732412E-02        0.1075676724E+04        0.1000000000E+02        0.3000000000E+03        0.0000000000E+00
      0.0000000000E+00
      0.2400000000E-02        0.3120000000E-01        0.0000000000E+00        0.0000000000E+00        0.2753472958E-02        0.1075575374E+04        0.1000000000E+02        0.3000000000E+03        0.0000000000E+00
      0.0000000000E+00
      0.2400000000E-02        0.3280000000E-01        0.0000000000E+00        0.0000000000E+00        0.2753213357E-02        0.1075473967E+04        0.1000000000E+02        0.3000000000E+03        0.0000000000E+00
      0.0000000000E+00
      0.2400000000E-02        0.3440000000E-01        0.0000000000E+00        0.0000000000E+00        0.2752953608E-02        0.1075372503E+04        0.1000000000E+02        0.3000000000E+03        0.0000000000E+00
      0.0000000000E+00
      0.2400000000E-02        0.2800000000E-01        0.0000000000E+00        0.0000000000E+00        0.2753991720E-02        0.1075778016E+04        0.1000000000E+02        0.3000000000E+03        0.0000000000E+00
      0.0000000000E+00
      0.2400000000E-02        0.3600000000E-01        0.0000000000E+00        0.0000000000E+00        0.2752693713E-02        0.1075270982E+04        0.1000000000E+02        0.3000000000E+03        0.0000000000E+00
      0.0000000000E+00
      0.2400000000E-02        0.3920000000E-01        0.0000000000E+00        0.0000000000E+00        0.2752173480E-02        0.1075067766E+04        0.1000000000E+02        0.3000000000E+03        0.0000000000E+00
      0.0000000000E+00
      0.2400000000E-02        0.3760000000E-01        0.0000000000E+00        0.0000000000E+00        0.2752433671E-02        0.1075169403E+04        0.1000000000E+02        0.3000000000E+03        0.0000000000E+00
      0.0000000000E+00
      0.2400000000E-02        0.4080000000E-01        0.0000000000E+00        0.0000000000E+00        0.2751913143E-02        0.1074966071E+04        0.1000000000E+02        0.3000000000E+03        0.0000000000E+00
      0.0000000000E+00
      0.2400000000E-02        0.4240000000E-01        0.0000000000E+00        0.0000000000E+00        0.2751652657E-02        0.1074864319E+04        0.1000000000E+02        0.3000000000E+03        0.0000000000E+00
      0.0000000000E+00
      0.2400000000E-02        0.4560000000E-01        0.0000000000E+00        0.0000000000E+00        0.2751131242E-02        0.1074660641E+04        0.1000000000E+02        0.3000000000E+03        0.0000000000E+00
      0.0000000000E+00
      0.2400000000E-02        0.4400000000E-01        0.0000000000E+00        0.0000000000E+00        0.2751392023E-02        0.1074762509E+04        0.1000000000E+02        0.3000000000E+03        0.0000000000E+00
      0.0000000000E+00
      0.2400000000E-02        0.4720000000E-01        0.0000000000E+00        0.0000000000E+00        0.2750870311E-02        0.1074558715E+04        0.1000000000E+02        0.3000000000E+03        0.0000000000E+00
      0.0000000000E+00
      0.2400000000E-02        0.4880000000E-01        0.0000000000E+00        0.0000000000E+00        0.2750609232E-02        0.1074456731E+04        0.1000000000E+02        0.3000000000E+03        0.0000000000E+00
      0.0000000000E+00
      0.2400000000E-02        0.5200000000E-01        0.0000000000E+00        0.0000000000E+00        0.2750086628E-02        0.1074252589E+04        0.1000000000E+02        0.3000000000E+03        0.0000000000E+00
      0.0000000000E+00
      0.2400000000E-02        0.5360000000E-01        0.0000000000E+00        0.0000000000E+00        0.2749825103E-02        0.1074150431E+04        0.1000000000E+02        0.3000000000E+03        0.0000000000E+00
      0.0000000000E+00
      0.2400000000E-02        0.5040000000E-01        0.0000000000E+00        0.0000000000E+00        0.2750348005E-02        0.1074354689E+04        0.1000000000E+02        0.3000000000E+03        0.0000000000E+00
      0.0000000000E+00
      0.2400000000E-02        0.5520000000E-01        0.0000000000E+00        0.0000000000E+00        0.2749563427E-02        0.1074048214E+04        0.1000000000E+02        0.3000000000E+03        0.0000000000E+00
      0.0000000000E+00
      0.2400000000E-02        0.5840000000E-01        0.0000000000E+00        0.0000000000E+00        0.2749039629E-02        0.1073843605E+04        0.1000000000E+02        0.3000000000E+03        0.0000000000E+00
      0.0000000000E+00
      0.2400000000E-02        0.5680000000E-01        0.0000000000E+00        0.0000000000E+00        0.2749301603E-02        0.1073945939E+04        0.1000000000E+02        0.3000000000E+03        0.0000000000E+00
      0.0000000000E+00
      0.2400000000E-02        0.6000000000E-01        0.0000000000E+00        0.0000000000E+00        0.2748777505E-02        0.1073741213E+04        0.1000000000E+02        0.3000000000E+03        0.0000000000E+00
      0.0000000000E+00
      0.2400000000E-02        0.6160000000E-01        0.0000000000E+00        0.0000000000E+00        0.2748515230E-02        0.1073638762E+04        0.1000000000E+02        0.3000000000E+03        0.0000000000E+00
      0.0000000000E+00
      0.2400000000E-02        0.6320000000E-01        0.0000000000E+00        0.0000000000E+00        0.2748252806E-02        0.1073536252E+04        0.1000000000E+02        0.3000000000E+03        0.0000000000E+00
      0.0000000000E+00
      0.2400000000E-02        0.6640000000E-01        0.0000000000E+00        0.0000000000E+00        0.2747727506E-02        0.1073331057E+04        0.1000000000E+02        0.3000000000E+03        0.0000000000E+00
      0.0000000000E+00
      0.2400000000E-02        0.6480000000E-01        0.0000000000E+00        0.0000000000E+00        0.2747990231E-02        0.1073433684E+04        0.1000000000E+02        0.3000000000E+03        0.0000000000E+00
      0.0000000000E+00
      0.2400000000E-02        0.6960000000E-01        0.0000000000E+00        0.0000000000E+00        0.2747201602E-02        0.1073125626E+04        0.1000000000E+02        0.3000000000E+03        0.0000000000E+00
      0.0000000000E+00
      0.2400000000E-02        0.6800000000E-01        0.0000000000E+00        0.0000000000E+00        0.2747464629E-02        0.1073228371E+04        0.1000000000E+02        0.3000000000E+03        0.0000000000E+00
      0.0000000000E+00
      0.2400000000E-02        0.7120000000E-01        0.0000000000E+00        0.0000000000E+00        0.2746938424E-02        0.1073022822E+04        0.1000000000E+02        0.3000000000E+03        0.0000000000E+00
      0.0000000000E+00
      0.2400000000E-02        0.7440000000E-01        0.0000000000E+00        0.0000000000E+00        0.2746411612E-02        0.1072817036E+04        0.1000000000E+02        0.3000000000E+03        0.0000000000E+00
      0.0000000000E+00
      0.2400000000E-02        0.7280000000E-01        0.0000000000E+00        0.0000000000E+00        0.2746675094E-02        0.1072919958E+04        0.1000000000E+02        0.3000000000E+03        0.0000000000E+00
      0.0000000000E+00
      0.2400000000E-02        0.7600000000E-01        0.0000000000E+00        0.0000000000E+00        0.2746147979E-02        0.1072714054E+04        0.1000000000E+02        0.3000000000E+03        0.0000000000E+00
      0.0000000000E+00
      0.2400000000E-02        0.7920000000E-01        0.0000000000E+00        0.0000000000E+00        0.2745620257E-02        0.1072507913E+04        0.1000000000E+02        0.3000000000E+03        0.0000000000E+00
      0.0000000000E+00
      0.2400000000E-02        0.7760000000E-01        0.0000000000E+00        0.0000000000E+00        0.2745884194E-02        0.1072611013E+04        0.1000000000E+02        0.3000000000E+03        0.0000000000E+00
      0.0000000000E+00
      0.4000000000E-02        0.8000000000E-03        0.0000000000E+00        0.0000000000E+00        0.2758377697E-02        0.1077491288E+04        0.1000000000E+02        0.3000000000E+03        0.0000000000E+00
      0.0000000000E+00
      0.4000000000E-02        0.2400000000E-02        0.0000000000E+00        0.0000000000E+00        0.2758120854E-02        0.1077390959E+04        0.1000000000E+02        0.3000000000E+03        0.0000000000E+00
      0.0000000000E+00
      0.4000000000E-02        0.4000000000E-02        0.0000000000E+00        0.0000000000E+00        0.2757863868E-02        0.1077290573E+04        0.1000000000E+02        0.3000000000E+03        0.0000000000E+00
      0.0000000000E+00
      0.4000000000E-02        0.5600000000E-02        0.0000000000E+00        0.0000000000E+00        0.2757606738E-02        0.1077190132E+04        0.1000000000E+02        0.3000000000E+03        0.0000000000E+00
      0.0000000000E+00
      0.4000000000E-02        0.8800000000E-02        0.0000000000E+00        0.0000000000E+00        0.2757092045E-02        0.1076989080E+04        0.1000000000E+02        0.3000000000E+03        0.0000000000E+00
      0.0000000000E+00
      0.4000000000E-02        0.7200000000E-02        0.0000000000E+00        0.0000000000E+00        0.2757349463E-02        0.1077089634E+04        0.1000000000E+02        0.3000000000E+03        0.0000000000E+00
      0.0000000000E+00
      0.4000000000E-02        0.1040000000E-01        0.0000000000E+00        0.0000000000E+00        0.2756834482E-02        0.1076888470E+04        0.1000000000E+02        0.3000000000E+03        0.0000000000E+00
      0.0000000000E+00
      0.4000000000E-02        0.1200000000E-01        0.0000000000E+00        0.0000000000E+00        0.2756576775E-02        0.1076787803E+04        0.1000000000E+02        0.3000000000E+03        0.0000000000E+00
      0.0000000000E+00
      0.4000000000E-02        0.1360000000E-01        0.0000000000E+00        0.0000000000E+00        0.2756318923E-02        0.1076687079E+04        0.1000000000E+02        0.3000000000E+03        0.0000000000E+00
      0.0000000000E+00
      0.4000000000E-02        0.1680000000E-01        0.0000000000E+00        0.0000000000E+00        0.2755802785E-02        0.1076485463E+04        0.1000000000E+02        0.3000000000E+03        0.0000000000E+00
      0.0000000000E+00
      0.4000000000E-02        0.1520000000E-01        0.0000000000E+00        0.0000000000E+00        0.2756060927E-02        0.1076586300E+04        0.1000000000E+02        0.3000000000E+03        0.0000000000E+00
      0.0000000000E+00
      0.4000000000E-02        0.2000000000E-01        0.0000000000E+00        0.0000000000E+00        0.2755286067E-02        0.1076283620E+04        0.1000000000E+02        0.3000000000E+03        0.0000000000E+00
      0.0000000000E+00
      0.4000000000E-02        0.1840000000E-01        0.0000000000E+00        0.0000000000E+00        0.2755544499E-02        0.1076384570E+04        0.1000000000E+02        0.3000000000E+03        0.0000000000E+00
      0.0000000000E+00
      0.4000000000E-02        0.2160000000E-01        0.0000000000E+00        0.0000000000E+00        0.2755027489E-02        0.1076182613E+04        0.1000000000E+02        0.3000000000E+03        0.0000000000E+00
      0.0000000000E+00
      0.4000000000E-02        0.2480000000E-01        0.0000000000E+00        0.0000000000E+00        0.2754509897E-02        0.1075980428E+04        0.1000000000E+02        0.3000000000E+03        0.0000000000E+00
      0.0000000000E+00
      0.4000000000E-02        0.2320000000E-01        0.0000000000E+00        0.0000000000E+00        0.2754768766E-02        0.1076081549E+04        0.1000000000E+02        0.3000000000E+03        0.0000000000E+00
      0.0000000000E+00
      0.4000000000E-02        0.2800000000E-01        0.0000000000E+00        0.0000000000E+00        0.2753991720E-02        0.1075778016E+04        0.1000000000E+02        0.3000000000E+03        0.0000000000E+00
      0.0000000000E+00
      0.4000000000E-02        0.2640000000E-01        0.0000000000E+00        0.0000000000E+00        0.2754250881E-02        0.1075879251E+04        0.1000000000E+02        0.3000000000E+03        0.0000000000E+00
      0.0000000000E+00
      0.4000000000E-02        0.2960000000E-01        0.0000000000E+00        0.0000000000E+00        0.2753732412E-02        0.1075676724E+04        0.1000000000E+02        0.3000000000E+03        0.0000000000E+00
      0.0000000000E+00
      0.4000000000E-02        0.3120000000E-01        0.0000000000E+00        0.0000000000E+00        0.2753472958E-02        0.1075575374E+04        0.1000000000E+02        0.3000000000E+03        0.0000000000E+00
      0.0000000000E+00
      0.4000000000E-02        0.3280000000E-01        0.0000000000E+00        0.0000000000E+00        0.2753213357E-02        0.1075473967E+04        0.1000000000E+02        0.3000000000E+03        0.0000000000E+00
      0.0000000000E+00
      0.4000000000E-02        0.3440000000E-01        0.0000000000E+00        0.0000000000E+00        0.2752953608E-02        0.1075372503E+04        0.1000000000E+02        0.3000000000E+03        0.0000000000E+00
      0.0000000000E+00
      0.4000000000E-02        0.3760000000E-01        0.0000000000E+00        0.0000000000E+00        0.2752433671E-02        0.1075169403E+04        0.1000000000E+02        0.3000000000E+03        0.0000000000E+00
      0.0000000000E+00
      0.4000000000E-02        0.3600000000E-01        0.0000000000E+00        0.0000000000E+00        0.2752693713E-02        0.1075270982E+04        0.1000000000E+02        0.3000000000E+03        0.0000000000E+00
      0.0000000000E+00
      0.4000000000E-02        0.3920000000E-01        0.0000000000E+00        0.0000000000E+00        0.2752173480E-02        0.1075067766E+04        0.1000000000E+02        0.3000000000E+03        0.0000000000E+00
      0.0000000000E+00