title="Starting Config"
 variables = x, y, vx, vy, mass, rho, mu, Temp, surf_normx, surf_normy
ZONE T="Real Particles",F=Point,C=Blue
      0.1000000000E-02        0.1000000000E-02        0.0000000000E+00        0.0000000000E+00        0.4000000000E-02        0.1000000000E+04        0.1000000000E+02        0.3000000000E+03        0.0000000000E+00
      0.0000000000E+00
      0.1000000000E-02        0.3000000000E-02        0.0000000000E+00        0.0000000000E+00        0.4000000000E-02        0.1000000000E+04        0.1000000000E+02        0.3000000000E+03        0.0000000000E+00
      0.0000000000E+00
      0.1000000000E-02        0.5000000000E-02        0.0000000000E+00        0.0000000000E+00        0.4000000000E-02        0.1000000000E+04        0.1000000000E+02        0.3000000000E+03        0.0000000000E+00
      0.0000000000E+00
      0.1000000000E-02        0.7000000000E-02        0.0000000000E+00        0.0000000000E+00        0.4000000000E-02        0.1000000000E+04        0.1000000000E+02        0.3000000000E+03        0.0000000000E+00
      0.0000000000E+00
      0.1000000000E-02        0.9000000000E-02        0.0000000000E+00        0.0000000000E+00        0.4000000000E-02        0.1000000000E+04        0.1000000000E+02        0.3000000000E+03        0.0000000000E+00
      0.0000000000E+00
      0.1000000000E-02        0.1100000000E-01        0.0000000000E+00        0.0000000000E+00        0.4000000000E-02        0.1000000000E+04        0.1000000000E+02        0.3000000000E+03        0.0000000000E+00
      0.0000000000E+00
      0.1000000000E-02        0.1300000000E-01        0.0000000000E+00        0.0000000000E+00        0.4000000000E-02        0.1000000000E+04        0.1000000000E+02        0.3000000000E+03        0.0000000000E+00
      0.0000000000E+00
      0.1000000000E-02        0.1700000000E-01        0.0000000000E+00        0.0000000000E+00        0.4000000000E-02        0.1000000000E+04        0.1000000000E+02        0.3000000000E+03        0.0000000000E+00
      0.0000000000E+00
      0.1000000000E-02        0.1500000000E-01        0.0000000000E+00        0.0000000000E+00        0.4000000000E-02        0.1000000000E+04        0.1000000000E+02        0.3000000000E+03        0.0000000000E+00
      0.0000000000E+00
      0.1000000000E-02        0.1900000000E-01        0.0000000000E+00        0.0000000000E+00        0.4000000000E-02        0.1000000000E+04        0.1000000000E+02        0.3000000000E+03        0.0000000000E+00
      0.0000000000E+00
      0.1000000000E-02        0.2100000000E-01        0.0000000000E+00        0.0000000000E+00        0.4000000000E-02        0.1000000000E+04        0.1000000000E+02        0.3000000000E+03        0.0000000000E+00
      0.0000000000E+00
      0.1000000000E-02        0.2500000000E-01        0.0000000000E+00        0.0000000000E+00        0.4000000000E-02        0.1000000000E+04        0.1000000000E+02        0.3000000000E+03        0.0000000000E+00
      0.0000000000E+00
      0.1000000000E-02        0.2700000000E-01        0.0000000000E+00        0.0000000000E+00        0.4000000000E-02        0.1000000000E+04        0.1000000000E+02        0.3000000000E+03        0.0000000000E+00
      0.0000000000E+00
      0.1000000000E-02        0.2300000000E-01        0.0000000000E+00        0.0000000000E+00        0.4000000000E-02        0.1000000000E+04        0.1000000000E+02        0.3000000000E+03        0.0000000000E+00
      0.0000000000E+00
      0.1000000000E-02        0.2900000000E-01        0.0000000000E+00        0.0000000000E+00        0.4000000000E-02        0.1000000000E+04        0.1000000000E+02        0.3000000000E+03        0.0000000000E+00
      0.0000000000E+00
      0.1000000000E-02        0.3300000000E-01        0.0000000000E+00        0.0000000000E+00        0.4000000000E-02        0.1000000000E+04        0.1000000000E+02        0.3000000000E+03        0.0000000000E+00
      0.0000000000E+00
      0.1000000000E-02        0.3500000000E-01        0.0000000000E+00        0.0000000000E+00        0.4000000000E-02        0.1000000000E+04        0.1000000000E+02        0.3000000000E+03        0.0000000000E+00
      0.0000000000E+00
      0.1000000000E-02        0.3900000000E-01        0.0000000000E+00        0.0000000000E+00        0.4000000000E-02        0.1000000000E+04        0.1000000000E+02        0.3000000000E+03        0.0000000000E+00
      0.0000000000E+00
      0.1000000000E-02        0.4100000000E-01        0.0000000000E+00        0.0000000000E+00        0.4000000000E-02        0.1000000000E+04        0.1000000000E+02        0.3000000000E+03        0.0000000000E+00
      0.0000000000E+00
      0.1000000000E-02        0.3700000000E-01        0.0000000000E+00        0.0000000000E+00        0.4000000000E-02        0.1000000000E+04        0.1000000000E+02        0.3000000000E+03        0.0000000000E+00
      0.0000000000E+00
      0.1000000000E-02        0.4300000000E-01        0.0000000000E+00        0.0000000000E+00        0.4000000000E-02        0.1000000000E+04        0.1000000000E+02        0.3000000000E+03        0.0000000000E+00
      0.0000000000E+00
      0.1000000000E-02        0.4700000000E-01        0.0000000000E+00        0.0000000000E+00        0.4000000000E-02        0.1000000000E+04        0.1000000000E+02        0.3000000000E+03        0.0000000000E+00
      0.0000000000E+00
      0.1000000000E-02        0.4900000000E-01        0.0000000000E+00        0.0000000000E+00        0.4000000000E-02        0.1000000000E+04        0.1000000000E+02        0.3000000000E+03        0.0000000000E+00
      0.0000000000E+00
      0.1000000000E-02        0.3100000000E-01        0.0000000000E+00        0.0000000000E+00        0.4000000000E-02        0.1000000000E+04        0.1000000000E+02        0.3000000000E+03        0.0000000000E+00
      0.0000000000E+00
      0.1000000000E-02        0.4500000000E-01        0.0000000000E+00        0.0000000000E+00        0.4000000000E-02        0.1000000000E+04        0.1000000000E+02        0.3000000000E+03        0.0000000000E+00
      0.0000000000E+00
      0.1000000000E-02        0.5100000000E-01        0.0000000000E+00        0.0000000000E+00        0.4000000000E-02        0.1000000000E+04        0.1000000000E+02        0.3000000000E+03        0.0000000000E+00
      0.0000000000E+00
      0.1000000000E-02        0.5300000000E-01        0.0000000000E+00        0.0000000000E+00        0.4000000000E-02        0.1000000000E+04        0.1000000000E+02        0.3000000000E+03        0.0000000000E+00
      0.0000000000E+00
      0.1000000000E-02        0.5500000000E-01        0.0000000000E+00        0.0000000000E+00        0.4000000000E-02        0.1000000000E+04        0.1000000000E+02        0.3000000000E+03        0.0000000000E+00
      0.0000000000E+00
      0.1000000000E-02        0.5900000000E-01        0.0000000000E+00        0.0000000000E+00        0.4000000000E-02        0.1000000000E+04        0.1000000000E+02        0.3000000000E+03        0.0000000000E+00
      0.0000000000E+00
      0.1000000000E-02        0.6100000000E-01        0.0000000000E+00        0.0000000000E+00        0.4000000000E-02        0.1000000000E+04        0.1000000000E+02        0.3000000000E+03        0.0000000000E+00
      0.0000000000E+00
      0.1000000000E-02        0.6300000000E-01        0.0000000000E+00        0.0000000000E+00        0.4000000000E-02        0.1000000000E+04        0.1000000000E+02        0.3000000000E+03        0.0000000000E+00
      0.0000000000E+00
      0.1000000000E-02        0.6500000000E-01        0.0000000000E+00        0.0000000000E+00        0.4000000000E-02        0.1000000000E+04        0.1000000000E+02        0.3000000000E+03        0.0000000000E+00
      0.0000000000E+00
      0.1000000000E-02        0.5700000000E-01        0.0000000000E+00        0.0000000000E+00        0.4000000000E-02        0.1000000000E+04        0.1000000000E+02        0.3000000000E+03        0.0000000000E+00
      0.0000000000E+00
      0.1000000000E-02        0.6700000000E-01        0.0000000000E+00        0.0000000000E+00        0.4000000000E-02        0.1000000000E+04        0.1000000000E+02        0.3000000000E+03        0.0000000000E+00
      0.0000000000E+00
      0.1000000000E-02        0.6900000000E-01        0.0000000000E+00        0.0000000000E+00        0.4000000000E-02        0.1000000000E+04        0.1000000000E+02        0.3000000000E+03        0.0000000000E+00
      0.0000000000E+00
      0.1000000000E-02        0.7100000000E-01        0.0000000000E+00        0.0000000000E+00        0.4000000000E-02        0.1000000000E+04        0.1000000000E+02        0.3000000000E+03        0.0000000000E+00
      0.0000000000E+00
      0.1000000000E-02        0.7500000000E-01        0.0000000000E+00        0.0000000000E+00        0.4000000000E-02        0.1000000000E+04        0.1000000000E+02        0.3000000000E+03        0.0000000000E+00
      0.0000000000E+00
      0.1000000000E-02        0.7700000000E-01        0.0000000000E+00        0.0000000000E+00        0.4000000000E-02        0.1000000000E+04        0.1000000000E+02        0.3000000000E+03        0.0000000000E+00
      0.0000000000E+00
      0.1000000000E-02        0.7900000000E-01        0.0000000000E+00        0.0000000000E+00        0.4000000000E-02        0.1000000000E+04        0.1000000000E+02        0.3000000000E+03        0.0000000000E+00
      0.0000000000E+00
      0.3000000000E-02        0.1000000000E-02        0.0000000000E+00        0.0000000000E+00        0.4000000000E-02        0.1000000000E+04        0.1000000000E+02        0.3000000000E+03        0.0000000000E+00
      0.0000000000E+00
      0.1000000000E-02        0.7300000000E-01        0.0000000000E+00        0.0000000000E+00        0.4000000000E-02        0.1000000000E+04        0.1000000000E+02        0.3000000000E+03        0.0000000000E+00
      0.0000000000E+00
      0.3000000000E-02        0.3000000000E-02        0.0000000000E+00        0.0000000000E+00        0.4000000000E-02        0.1000000000E+04        0.1000000000E+02        0.3000000000E+03        0.0000000000E+00
      0.0000000000E+00
      0.3000000000E-02        0.5000000000E-02        0.0000000000E+00        0.0000000000E+00        0.4000000000E-02        0.1000000000E+04        0.1000000000E+02        0.3000000000E+03        0.0000000000E+00
      0.0000000000E+00
      0.3000000000E-02        0.7000000000E-02        0.0000000000E+00        0.0000000000E+00        0.4000000000E-02        0.1000000000E+04        0.1000000000E+02        0.3000000000E+03        0.0000000000E+00
      0.0000000000E+00
      0.3000000000E-02        0.9000000000E-02        0.0000000000E+00        0.0000000000E+00        0.4000000000E-02        0.1000000000E+04        0.1000000000E+02        0.3000000000E+03        0.0000000000E+00
      0.0000000000E+00
      0.3000000000E-02        0.1100000000E-01        0.0000000000E+00        0.0000000000E+00        0.4000000000E-02        0.1000000000E+04        0.1000000000E+02        0.3000000000E+03        0.0000000000E+00
      0.0000000000E+00
      0.3000000000E-02        0.1300000000E-01        0.0000000000E+00        0.0000000000E+00        0.4000000000E-02        0.1000000000E+04        0.1000000000E+02        0.3000000000E+03        0.0000000000E+00
      0.0000000000E+00
      0.3000000000E-02        0.1700000000E-01        0.0000000000E+00        0.0000000000E+00        0.4000000000E-02        0.1000000000E+04        0.1000000000E+02        0.3000000000E+03        0.0000000000E+00
      0.0000000000E+00
      0.3000000000E-02        0.1900000000E-01        0.0000000000E+00        0.0000000000E+00        0.4000000000E-02        0.1000000000E+04        0.1000000000E+02        0.3000000000E+03        0.0000000000E+00
      0.0000000000E+00
      0.3000000000E-02        0.2100000000E-01        0.0000000000E+00        0.0000000000E+00        0.4000000000E-02        0.1000000000E+04        0.1000000000E+02        0.3000000000E+03        0.0000000000E+00
      0.0000000000E+00
      0.3000000000E-02        0.1500000000E-01        0.0000000000E+00        0.0000000000E+00        0.4000000000E-02        0.1000000000E+04        0.1000000000E+02        0.3000000000E+03        0.0000000000E+00
      0.0000000000E+00
      0.3000000000E-02        0.2300000000E-01        0.0000000000E+00        0.0000000000E+00        0.4000000000E-02        0.1000000000E+04        0.1000000000E+02        0.3000000000E+03        0.0000000000E+00
      0.0000000000E+00
      0.3000000000E-02        0.2500000000E-01        0.0000000000E+00        0.0000000000E+00        0.4000000000E-02        0.1000000000E+04        0.1000000000E+02        0.3000000000E+03        0.0000000000E+00
      0.0000000000E+00
      0.3000000000E-02        0.2900000000E-01        0.0000000000E+00        0.0000000000E+00        0.4000000000E-02        0.1000000000E+04        0.1000000000E+02        0.3000000000E+03        0.0000000000E+00
      0.0000000000E+00
      0.3000000000E-02        0.3100000000E-01        0.0000000000E+00        0.0000000000E+00        0.4000000000E-02        0.1000000000E+04        0.1000000000E+02        0.3000000000E+03        0.0000000000E+00
      0.0000000000E+00
      0.3000000000E-02        0.3300000000E-01        0.0000000000E+00        0.0000000000E+00        0.4000000000E-02        0.1000000000E+04        0.1000000000E+02        0.3000000000E+03        0.0000000000E+00
      0.0000000000E+00
      0.3000000000E-02        0.3700000000E-01        0.0000000000E+00        0.0000000000E+00        0.4000000000E-02        0.1000000000E+04        0.1000000000E+02        0.3000000000E+03        0.0000000000E+00
      0.0000000000E+00
      0.3000000000E-02        0.4100000000E-01        0.0000000000E+00        0.0000000000E+00        0.4000000000E-02        0.1000000000E+04        0.1000000000E+02        0.3000000000E+03        0.0000000000E+00
      0.0000000000E+00
      0.3000000000E-02        0.4300000000E-01        0.0000000000E+00        0.0000000000E+00        0.4000000000E-02        0.1000000000E+04        0.1000000000E+02        0.3000000000E+03        0.0000000000E+00
      0.0000000000E+00
      0.3000000000E-02        0.3500000000E-01        0.0000000000E+00        0.0000000000E+00        0.4000000000E-02        0.1000000000E+04        0.1000000000E+02        0.3000000000E+03        0.0000000000E+00
      0.0000000000E+00
      0.3000000000E-02        0.2700000000E-01        0.0000000000E+00        0.0000000000E+00        0.4000000000E-02        0.1000000000E+04        0.1000000000E+02        0.3000000000E+03        0.0000000000E+00
      0.0000000000E+00
      0.3000000000E-02        0.3900000000E-01        0.0000000000E+00        0.0000000000E+00        0.4000000000E-02        0.1000000000E+04        0.1000000000E+02        0.3000000000E+03        0.0000000000E+00
      0.0000000000E+00
      0.3000000000E-02        0.4500000000E-01        0.0000000000E+00        0.0000000000E+00        0.4000000000E-02        0.1000000000E+04        0.1000000000E+02        0.3000000000E+03        0.0000000000E+00
      0.0000000000E+00
      0.3000000000E-02        0.4900000000E-01        0.0000000000E+00        0.0000000000E+00        0.4000000000E-02        0.1000000000E+04        0.1000000000E+02        0.3000000000E+03        0.0000000000E+00
      0.0000000000E+00
      0.3000000000E-02        0.5100000000E-01        0.0000000000E+00        0.0000000000E+00        0.4000000000E-02        0.1000000000E+04        0.1000000000E+02        0.3000000000E+03        0.0000000000E+00
      0.0000000000E+00
      0.3000000000E-02        0.5300000000E-01        0.0000000000E+00        0.0000000000E+00        0.4000000000E-02        0.1000000000E+04        0.1000000000E+02        0.3000000000E+03        0.0000000000E+00
      0.0000000000E+00
      0.3000000000E-02        0.5500000000E-01        0.0000000000E+00        0.0000000000E+00        0.4000000000E-02        0.1000000000E+04        0.1000000000E+02        0.3000000000E+03        0.0000000000E+00
      0.0000000000E+00
      0.3000000000E-02        0.5700000000E-01        0.0000000000E+00        0.0000000000E+00        0.4000000000E-02        0.1000000000E+04        0.1000000000E+02        0.3000000000E+03        0.0000000000E+00
      0.0000000000E+00
      0.3000000000E-02        0.5900000000E-01        0.0000000000E+00        0.0000000000E+00        0.4000000000E-02        0.1000000000E+04        0.1000000000E+02        0.3000000000E+03        0.0000000000E+00
      0.0000000000E+00
      0.3000000000E-02        0.4700000000E-01        0.0000000000E+00        0.0000000000E+00        0.4000000000E-02        0.1000000000E+04        0.1000000000E+02        0.3000000000E+03        0.0000000000E+00
      0.0000000000E+00
      0.3000000000E-02        0.6300000000E-01        0.0000000000E+00        0.0000000000E+00        0.4000000000E-02        0.1000000000E+04        0.1000000000E+02        0.3000000000E+03        0.0000000000E+00
      0.0000000000E+00
      0.3000000000E-02        0.6100000000E-01        0.0000000000E+00        0.0000000000E+00        0.4000000000E-02        0.1000000000E+04        0.1000000000E+02        0.3000000000E+03        0.0000000000E+00
      0.0000000000E+00
      0.3000000000E-02        0.6500000000E-01        0.0000000000E+00        0.0000000000E+00        0.4000000000E-02        0.1000000000E+04        0.1000000000E+02        0.3000000000E+03        0.0000000000E+00
      0.0000000000E+00
      0.3000000000E-02        0.6700000000E-01        0.0000000000E+00        0.0000000000E+00        0.4000000000E-02        0.1000000000E+04        0.1000000000E+02        0.3000000000E+03        0.0000000000E+00
      0.0000000000E+00
      0.3000000000E-02        0.6900000000E-01        0.0000000000E+00        0.0000000000E+00        0.4000000000E-02        0.1000000000E+04        0.1000000000E+02        0.3000000000E+03        0.0000000000E+00
      0.0000000000E+00
      0.3000000000E-02        0.7100000000E-01        0.0000000000E+00        0.0000000000E+00        0.4000000000E-02        0.1000000000E+04        0.1000000000E+02        0.3000000000E+03        0.0000000000E+00
      0.0000000000E+00
      0.3000000000E-02        0.7300000000E-01        0.0000000000E+00        0.0000000000E+00        0.4000000000E-02        0.1000000000E+04        0.1000000000E+02        0.3000000000E+03        0.0000000000E+00
      0.0000000000E+00
      0.3000000000E-02        0.7700000000E-01        0.0000000000E+00        0.0000000000E+00        0.4000000000E-02        0.1000000000E+04        0.1000000000E+02        0.3000000000E+03        0.0000000000E+00
      0.0000000000E+00
      0.3000000000E-02        0.7900000000E-01        0.0000000000E+00        0.0000000000E+00        0.4000000000E-02        0.1000000000E+04        0.1000000000E+02        0.3000000000E+03        0.0000000000E+00
      0.0000000000E+00
      0.3000000000E-02        0.7500000000E-01        0.0000000000E+00        0.0000000000E+00        0.4000000000E-02        0.1000000000E+04        0.1000000000E+02        0.3000000000E+03        0.0000000000E+00
      0.0000000000E+00
      0.5000000000E-02        0.1000000000E-02        0.0000000000E+00        0.0000000000E+00        0.4000000000E-02        0.1000000000E+04        0.1000000000E+02        0.3000000000E+03        0.0000000000E+00
      0.0000000000E+00
      0.5000000000E-02        0.3000000000E-02        0.0000000000E+00        0.0000000000E+00        0.4000000000E-02        0.1000000000E+04        0.1000000000E+02        0.3000000000E+03        0.0000000000E+00
      0.0000000000E+00
      0.5000000000E-02        0.7000000000E-02        0.0000000000E+00        0.0000000000E+00        0.4000000000E-02        0.1000000000E+04        0.1000000000E+02        0.3000000000E+03        0.0000000000E+00
      0.0000000000E+00
      0.5000000000E-02        0.9000000000E-02        0.0000000000E+00        0.0000000000E+00        0.4000000000E-02        0.1000000000E+04        0.1000000000E+02        0.3000000000E+03        0.0000000000E+00
      0.0000000000E+00
      0.5000000000E-02        0.5000000000E-02        0.0000000000E+00        0.0000000000E+00        0.4000000000E-02        0.1000000000E+04        0.1000000000E+02        0.3000000000E+03        0.0000000000E+00
      0.0000000000E+00
      0.5000000000E-02        0.1100000000E-01        0.0000000000E+00        0.0000000000E+00        0.4000000000E-02        0.1000000000E+04        0.1000000000E+02        0.3000000000E+03        0.0000000000E+00
      0.0000000000E+00
      0.5000000000E-02        0.1300000000E-01        0.0000000000E+00        0.0000000000E+00        0.4000000000E-02        0.1000000000E+04        0.1000000000E+02        0.3000000000E+03        0.0000000000E+00
      0.0000000000E+00
      0.5000000000E-02        0.1500000000E-01        0.0000000000E+00        0.0000000000E+00        0.4000000000E-02        0.1000000000E+04        0.1000000000E+02        0.3000000000E+03        0.0000000000E+00
      0.0000000000E+00
      0.5000000000E-02        0.1700000000E-01        0.0000000000E+00        0.0000000000E+00        0.4000000000E-02        0.1000000000E+04        0.1000000000E+02        0.3000000000E+03        0.0000000000E+00
      0.0000000000E+00
      0.5000000000E-02        0.2100000000E-01        0.0000000000E+00        0.0000000000E+00        0.4000000000E-02        0.1000000000E+04        0.1000000000E+02        0.3000000000E+03        0.0000000000E+00
      0.0000000000E+00
      0.5000000000E-02        0.1900000000E-01        0.0000000000E+00        0.0000000000E+00        0.4000000000E-02        0.1000000000E+04        0.1000000000E+02        0.3000000000E+03        0.0000000000E+00
      0.0000000000E+00
      0.5000000000E-02        0.2300000000E-01        0.0000000000E+00        0.0000000000E+00        0.4000000000E-02        0.1000000000E+04        0.1000000000E+02        0.3000000000E+03        0.0000000000E+00
      0.0000000000E+00
      0.5000000000E-02        0.2500000000E-01        0.0000000000E+00        0.0000000000E+00        0.4000000000E-02        0.1000000000E+04        0.1000000000E+02        0.3000000000E+03        0.0000000000E+00
      0.0000000000E+00
      0.5000000000E-02        0.2700000000E-01        0.0000000000E+00        0.0000000000E+00        0.4000000000E-02        0.1000000000E+04        0.1000000000E+02        0.3000000000E+03        0.0000000000E+00
      0.0000000000E+00
      0.5000000000E-02        0.2900000000E-01        0.0000000000E+00        0.0000000000E+00        0.4000000000E-02        0.1000000000E+04        0.1000000000E+02        0.3000000000E+03        0.0000000000E+00
      0.0000000000E+00
      0.5000000000E-02        0.3100000000E-01        0.0000000000E+00        0.0000000000E+00        0.4000000000E-02        0.1000000000E+04        0.1000000000E+02        0.3000000000E+03        0.0000000000E+00
      0.0000000000E+00
      0.5000000000E-02        0.3300000000E-01        0.0000000000E+00        0.0000000000E+00        0.4000000000E-02        0.1000000000E+04        0.1000000000E+02        0.3000000000E+03        0.0000000000E+00
      0.0000000000E+00
      0.5000000000E-02        0.3500000000E-01        0.0000000000E+00        0.0000000000E+00        0.4000000000E-02        0.1000000000E+04        0.1000000000E+02        0.3000000000E+03        0.0000000000E+00
      0.0000000000E+00
      0.5000000000E-02        0.3700000000E-01        0.0000000000E+00        0.0000000000E+00        0.4000000000E-02        0.1000000000E+04        0.1000000000E+02        0.3000000000E+03        0.0000000000E+00
      0.0000000000E+00
      0.5000000000E-02        0.3900000000E-01        0.0000000000E+00        0.0000000000E+00        0.4000000000E-02        0.1000000000E+04        0.1000000000E+02        0.3000000000E+03        0.0000000000E+00
      0.0000000000E+00
      0.5000000000E-02        0.4300000000E-01        0.0000000000E+00        0.0000000000E+00        0.4000000000E-02        0.1000000000E+04        0.1000000000E+02        0.3000000000E+03        0.0000000000E+00
      0.0000000000E+00
      0.5000000000E-02        0.4100000000E-01        0.0000000000E+00        0.0000000000E+00        0.4000000000E-02        0.1000000000E+04        0.1000000000E+02        0.3000000000E+03        0.0000000000E+00
      0.0000000000E+00
      0.5000000000E-02        0.4500000000E-01        0.0000000000E+00        0.0000000000E+00        0.4000000000E-02        0.1000000000E+04        0.1000000000E+02        0.3000000000E+03        0.0000000000E+00
      0.0000000000E+00
      0.5000000000E-02        0.4700000000E-01        0.0000000000E+00        0.0000000000E+00        0.4000000000E-02        0.1000000000E+04        0.1000000000E+02        0.3000000000E+03        0.0000000000E+00
      0.0000000000E+00
      0.5000000000E-02        0.4900000000E-01        0.0000000000E+00        0.0000000000E+00        0.4000000000E-02        0.1000000000E+04        0.1000000000E+02        0.3000000000E+03        0.0000000000E+00
      0.0000000000E+00
      0.5000000000E-02        0.5100000000E-01        0.0000000000E+00        0.0000000000E+00        0.4000000000E-02        0.1000000000E+04        0.1000000000E+02        0.3000000000E+03        0.0000000000E+00
      0.0000000000E+00
      0.5000000000E-02        0.5300000000E-01        0.0000000000E+00        0.0000000000E+00        0.4000000000E-02        0.1000000000E+04        0.1000000000E+02        0.3000000000E+03        0.0000000000E+00
      0.0000000000E+00
      0.5000000000E-02        0.5700000000E-01        0.0000000000E+00        0.0000000000E+00        0.4000000000E-02        0.1000000000E+04        0.1000000000E+02        0.3000000000E+03        0.0000000000E+00
      0.0000000000E+00
      0.5000000000E-02        0.5500000000E-01        0.0000000000E+00        0.0000000000E+00        0.4000000000E-02        0.1000000000E+04        0.1000000000E+02        0.3000000000E+03        0.0000000000E+00
      0.0000000000E+00
      0.5000000000E-02        0.6100000000E-01        0.0000000000E+00        0.0000000000E+00        0.4000000000E-02        0.1000000000E+04        0.1000000000E+02        0.3000000000E+03        0.0000000000E+00
      0.0000000000E+00
      0.5000000000E-02        0.5900000000E-01        0.0000000000E+00        0.0000000000E+00        0.4000000000E-02        0.1000000000E+04        0.1000000000E+02        0.3000000000E+03        0.0000000000E+00
      0.0000000000E+00
      0.5000000000E-02        0.6300000000E-01        0.0000000000E+00        0.0000000000E+00        0.4000000000E-02        0.1000000000E+04        0.1000000000E+02        0.3000000000E+03        0.0000000000E+00
      0.0000000000E+00
      0.5000000000E-02        0.6500000000E-01        0.0000000000E+00        0.0000000000E+00        0.4000000000E-02        0.1000000000E+04        0.1000000000E+02        0.3000000000E+03        0.0000000000E+00
      0.0000000000E+00
      0.5000000000E-02        0.6700000000E-01        0.0000000000E+00        0.0000000000E+00        0.4000000000E-02        0.1000000000E+04        0.1000000000E+02        0.3000000000E+03        0.0000000000E+00
      0.0000000000E+00
      0.5000000000E-02        0.6900000000E-01        0.0000000000E+00        0.0000000000E+00        0.4000000000E-02        0.1000000000E+04        0.1000000000E+02        0.3000000000E+03        0.0000000000E+00
      0.0000000000E+00
      0.5000000000E-02        0.7100000000E-01        0.0000000000E+00        0.0000000000E+00        0.4000000000E-02        0.1000000000E+04        0.1000000000E+02        0.3000000000E+03        0.0000000000E+00
      0.0000000000E+00
      0.5000000000E-02        0.7300000000E-01        0.0000000000E+00        0.0000000000E+00        0.4000000000E-02        0.1000000000E+04        0.1000000000E+02        0.3000000000E+03        0.0000000000E+00
      0.0000000000E+00
      0.5000000000E-02        0.7500000000E-01        0.0000000000E+00        0.0000000000E+00        0.4000000000E-02        0.1000000000E+04        0.1000000000E+02        0.3000000000E+03        0.0000000000E+00
      0.0000000000E+00
      0.5000000000E-02        0.7700000000E-01        0.0000000000E+00        0.0000000000E+00        0.4000000000E-02        0.1000000000E+04        0.1000000000E+02        0.3000000000E+03        0.0000000000E+00
      0.0000000000E+00
      0.5000000000E-02        0.7900000000E-01        0.0000000000E+00        0.0000000000E+00        0.4000000000E-02        0.1000000000E+04        0.1000000000E+02        0.3000000000E+03        0.0000000000E+00
      0.0000000000E+00
      0.7000000000E-02        0.1000000000E-02        0.0000000000E+00        0.0000000000E+00        0.4000000000E-02        0.1000000000E+04        0.1000000000E+02        0.3000000000E+03        0.0000000000E+00
      0.0000000000E+00
      0.7000000000E-02        0.3000000000E-02        0.0000000000E+00        0.0000000000E+00        0.4000000000E-02        0.1000000000E+04        0.1000000000E+02        0.3000000000E+03        0.0000000000E+00
      0.0000000000E+00
      0.7000000000E-02        0.5000000000E-02        0.0000000000E+00        0.0000000000E+00        0.4000000000E-02        0.1000000000E+04        0.1000000000E+02        0.3000000000E+03        0.0000000000E+00
      0.0000000000E+00
      0.7000000000E-02        0.7000000000E-02        0.0000000000E+00        0.0000000000E+00        0.4000000000E-02        0.1000000000E+04        0.1000000000E+02        0.3000000000E+03        0.0000000000E+00
      0.0000000000E+00
      0.7000000000E-02        0.9000000000E-02        0.0000000000E+00        0.0000000000E+00        0.4000000000E-02        0.1000000000E+04        0.1000000000E+02        0.3000000000E+03        0.0000000000E+00
      0.0000000000E+00