title="Starting Config"
 variables = x, y, vx, vy, mass, rho, mu, Temp, surf_normx, surf_normy
ZONE T="Real Particles",F=Point,C=Blue
      0.9103761937E-03        0.9082485091E-03        0.0000000000E+00        0.0000000000E+00        0.2758360325E-02        0.1077484502E+04        0.1000000000E+02        0.3000000000E+03        0.0000000000E+00
      0.0000000000E+00
      0.8688438749E-03        0.2428196451E-02        0.0000000000E+00        0.0000000000E+00        0.2758116327E-02        0.1077389190E+04        0.1000000000E+02        0.3000000000E+03        0.0000000000E+00
      0.0000000000E+00
      0.8847032169E-03        0.4008641089E-02        0.0000000000E+00        0.0000000000E+00        0.2757862480E-02        0.1077290031E+04        0.1000000000E+02        0.3000000000E+03        0.0000000000E+00
      0.0000000000E+00
      0.8296071303E-03        0.5588592583E-02        0.0000000000E+00        0.0000000000E+00        0.2757608571E-02        0.1077190848E+04        0.1000000000E+02        0.3000000000E+03        0.0000000000E+00
      0.0000000000E+00
      0.8452027916E-03        0.7199040698E-02        0.0000000000E+00        0.0000000000E+00        0.2757349618E-02        0.1077089694E+04        0.1000000000E+02        0.3000000000E+03        0.0000000000E+00
      0.0000000000E+00
      0.8673908883E-03        0.8796617469E-02        0.0000000000E+00        0.0000000000E+00        0.2757092589E-02        0.1076989293E+04        0.1000000000E+02        0.3000000000E+03        0.0000000000E+00
      0.0000000000E+00
      0.8347541166E-03        0.1039511053E-01        0.0000000000E+00        0.0000000000E+00        0.2756835270E-02        0.1076888777E+04        0.1000000000E+02        0.3000000000E+03        0.0000000000E+00
      0.0000000000E+00
      0.8261927662E-03        0.1199172758E-01        0.0000000000E+00        0.0000000000E+00        0.2756578108E-02        0.1076788323E+04        0.1000000000E+02        0.3000000000E+03        0.0000000000E+00
      0.0000000000E+00
      0.8768582090E-03        0.1359011131E-01        0.0000000000E+00        0.0000000000E+00        0.2756320518E-02        0.1076687702E+04        0.1000000000E+02        0.3000000000E+03        0.0000000000E+00
      0.0000000000E+00
      0.8428496501E-03        0.1519103186E-01        0.0000000000E+00        0.0000000000E+00        0.2756062373E-02        0.1076586865E+04        0.1000000000E+02        0.3000000000E+03        0.0000000000E+00
      0.0000000000E+00
      0.8745804645E-03        0.1679032232E-01        0.0000000000E+00        0.0000000000E+00        0.2755804347E-02        0.1076486073E+04        0.1000000000E+02        0.3000000000E+03        0.0000000000E+00
      0.0000000000E+00
      0.8417915206E-03        0.1838918310E-01        0.0000000000E+00        0.0000000000E+00        0.2755546245E-02        0.1076385252E+04        0.1000000000E+02        0.3000000000E+03        0.0000000000E+00
      0.0000000000E+00
      0.8732994613E-03        0.1998929551E-01        0.0000000000E+00        0.0000000000E+00        0.2755287796E-02        0.1076284295E+04        0.1000000000E+02        0.3000000000E+03        0.0000000000E+00
      0.0000000000E+00
      0.8442769556E-03        0.2158765669E-01        0.0000000000E+00        0.0000000000E+00        0.2755029484E-02        0.1076183392E+04        0.1000000000E+02        0.3000000000E+03        0.0000000000E+00
      0.0000000000E+00
      0.8720001666E-03        0.2318677765E-01        0.0000000000E+00        0.0000000000E+00        0.2754770904E-02        0.1076082385E+04        0.1000000000E+02        0.3000000000E+03        0.0000000000E+00
      0.0000000000E+00
      0.8428097494E-03        0.2478755151E-01        0.0000000000E+00        0.0000000000E+00        0.2754511911E-02        0.1075981215E+04        0.1000000000E+02        0.3000000000E+03        0.0000000000E+00
      0.0000000000E+00
      0.8713076622E-03        0.2638801235E-01        0.0000000000E+00        0.0000000000E+00        0.2754252823E-02        0.1075880009E+04        0.1000000000E+02        0.3000000000E+03        0.0000000000E+00
      0.0000000000E+00
      0.8368442441E-03        0.2798896134E-01        0.0000000000E+00        0.0000000000E+00        0.2753993509E-02        0.1075778714E+04        0.1000000000E+02        0.3000000000E+03        0.0000000000E+00
      0.0000000000E+00
      0.8364075025E-03        0.2959145695E-01        0.0000000000E+00        0.0000000000E+00        0.2753733797E-02        0.1075677264E+04        0.1000000000E+02        0.3000000000E+03        0.0000000000E+00
      0.0000000000E+00
      0.8407558424E-03        0.3279375725E-01        0.0000000000E+00        0.0000000000E+00        0.2753214370E-02        0.1075474363E+04        0.1000000000E+02        0.3000000000E+03        0.0000000000E+00
      0.0000000000E+00
      0.8723138759E-03        0.3119205127E-01        0.0000000000E+00        0.0000000000E+00        0.2753474247E-02        0.1075575878E+04        0.1000000000E+02        0.3000000000E+03        0.0000000000E+00
      0.0000000000E+00
      0.8727788776E-03        0.3439477312E-01        0.0000000000E+00        0.0000000000E+00        0.2752954457E-02        0.1075372835E+04        0.1000000000E+02        0.3000000000E+03        0.0000000000E+00
      0.0000000000E+00
      0.8371350461E-03        0.3599374728E-01        0.0000000000E+00        0.0000000000E+00        0.2752694729E-02        0.1075271379E+04        0.1000000000E+02        0.3000000000E+03        0.0000000000E+00
      0.0000000000E+00
      0.8750464075E-03        0.3919854376E-01        0.0000000000E+00        0.0000000000E+00        0.2752173717E-02        0.1075067858E+04        0.1000000000E+02        0.3000000000E+03        0.0000000000E+00
      0.0000000000E+00
      0.8750464075E-03        0.4080145624E-01        0.0000000000E+00        0.0000000000E+00        0.2751912906E-02        0.1074965979E+04        0.1000000000E+02        0.3000000000E+03        0.0000000000E+00
      0.0000000000E+00
      0.8374828166E-03        0.4240387205E-01        0.0000000000E+00        0.0000000000E+00        0.2751652027E-02        0.1074864073E+04        0.1000000000E+02        0.3000000000E+03        0.0000000000E+00
      0.0000000000E+00
      0.8371350461E-03        0.4400625272E-01        0.0000000000E+00        0.0000000000E+00        0.2751391005E-02        0.1074762111E+04        0.1000000000E+02        0.3000000000E+03        0.0000000000E+00
      0.0000000000E+00
      0.8374828166E-03        0.3759612795E-01        0.0000000000E+00        0.0000000000E+00        0.2752434300E-02        0.1075169648E+04        0.1000000000E+02        0.3000000000E+03        0.0000000000E+00
      0.0000000000E+00
      0.8727788776E-03        0.4560522688E-01        0.0000000000E+00        0.0000000000E+00        0.2751130389E-02        0.1074660308E+04        0.1000000000E+02        0.3000000000E+03        0.0000000000E+00
      0.0000000000E+00
      0.8407558424E-03        0.4720624275E-01        0.0000000000E+00        0.0000000000E+00        0.2750869293E-02        0.1074558318E+04        0.1000000000E+02        0.3000000000E+03        0.0000000000E+00
      0.0000000000E+00
      0.8723138759E-03        0.4880794873E-01        0.0000000000E+00        0.0000000000E+00        0.2750607935E-02        0.1074456225E+04        0.1000000000E+02        0.3000000000E+03        0.0000000000E+00
      0.0000000000E+00
      0.8364075025E-03        0.5040854305E-01        0.0000000000E+00        0.0000000000E+00        0.2750346610E-02        0.1074354144E+04        0.1000000000E+02        0.3000000000E+03        0.0000000000E+00
      0.0000000000E+00
      0.8713076622E-03        0.5361198765E-01        0.0000000000E+00        0.0000000000E+00        0.2749823143E-02        0.1074149665E+04        0.1000000000E+02        0.3000000000E+03        0.0000000000E+00
      0.0000000000E+00
      0.8428097494E-03        0.5521244849E-01        0.0000000000E+00        0.0000000000E+00        0.2749561391E-02        0.1074047418E+04        0.1000000000E+02        0.3000000000E+03        0.0000000000E+00
      0.0000000000E+00
      0.8720001666E-03        0.5681322235E-01        0.0000000000E+00        0.0000000000E+00        0.2749299439E-02        0.1073945093E+04        0.1000000000E+02        0.3000000000E+03        0.0000000000E+00
      0.0000000000E+00
      0.8368442441E-03        0.5201103866E-01        0.0000000000E+00        0.0000000000E+00        0.2750084824E-02        0.1074251885E+04        0.1000000000E+02        0.3000000000E+03        0.0000000000E+00
      0.0000000000E+00
      0.8442769556E-03        0.5841234331E-01        0.0000000000E+00        0.0000000000E+00        0.2749037607E-02        0.1073842815E+04        0.1000000000E+02        0.3000000000E+03        0.0000000000E+00
      0.0000000000E+00
      0.8732994613E-03        0.6001070449E-01        0.0000000000E+00        0.0000000000E+00        0.2748775750E-02        0.1073740528E+04        0.1000000000E+02        0.3000000000E+03        0.0000000000E+00
      0.0000000000E+00
      0.8417915206E-03        0.6161081690E-01        0.0000000000E+00        0.0000000000E+00        0.2748513457E-02        0.1073638069E+04        0.1000000000E+02        0.3000000000E+03        0.0000000000E+00
      0.0000000000E+00
      0.8745804645E-03        0.6320967768E-01        0.0000000000E+00        0.0000000000E+00        0.2748251218E-02        0.1073535632E+04        0.1000000000E+02        0.3000000000E+03        0.0000000000E+00
      0.0000000000E+00
      0.8428496501E-03        0.6480896814E-01        0.0000000000E+00        0.0000000000E+00        0.2747988759E-02        0.1073433109E+04        0.1000000000E+02        0.3000000000E+03        0.0000000000E+00
      0.0000000000E+00
      0.8768582090E-03        0.6640988869E-01        0.0000000000E+00        0.0000000000E+00        0.2747725881E-02        0.1073330422E+04        0.1000000000E+02        0.3000000000E+03        0.0000000000E+00
      0.0000000000E+00
      0.8261927662E-03        0.6800827242E-01        0.0000000000E+00        0.0000000000E+00        0.2747463270E-02        0.1073227840E+04        0.1000000000E+02        0.3000000000E+03        0.0000000000E+00
      0.0000000000E+00
      0.8673908883E-03        0.7120338253E-01        0.0000000000E+00        0.0000000000E+00        0.2746937867E-02        0.1073022604E+04        0.1000000000E+02        0.3000000000E+03        0.0000000000E+00
      0.0000000000E+00
      0.8347541166E-03        0.6960488947E-01        0.0000000000E+00        0.0000000000E+00        0.2747200798E-02        0.1073125312E+04        0.1000000000E+02        0.3000000000E+03        0.0000000000E+00
      0.0000000000E+00
      0.8452027916E-03        0.7280095930E-01        0.0000000000E+00        0.0000000000E+00        0.2746674936E-02        0.1072919897E+04        0.1000000000E+02        0.3000000000E+03        0.0000000000E+00
      0.0000000000E+00
      0.8296071303E-03        0.7441140742E-01        0.0000000000E+00        0.0000000000E+00        0.2746409733E-02        0.1072816302E+04        0.1000000000E+02        0.3000000000E+03        0.0000000000E+00
      0.0000000000E+00
      0.8847032169E-03        0.7599135891E-01        0.0000000000E+00        0.0000000000E+00        0.2746149403E-02        0.1072714611E+04        0.1000000000E+02        0.3000000000E+03        0.0000000000E+00
      0.0000000000E+00
      0.9103761937E-03        0.7909175149E-01        0.0000000000E+00        0.0000000000E+00        0.2745638118E-02        0.1072514890E+04        0.1000000000E+02        0.3000000000E+03        0.0000000000E+00
      0.0000000000E+00
      0.2428447938E-02        0.8671069372E-03        0.0000000000E+00        0.0000000000E+00        0.2758366928E-02        0.1077487081E+04        0.1000000000E+02        0.3000000000E+03        0.0000000000E+00
      0.0000000000E+00
      0.2441003053E-02        0.2440514348E-02        0.0000000000E+00        0.0000000000E+00        0.2758114349E-02        0.1077388418E+04        0.1000000000E+02        0.3000000000E+03        0.0000000000E+00
      0.0000000000E+00
      0.2454579942E-02        0.4031580956E-02        0.0000000000E+00        0.0000000000E+00        0.2757858794E-02        0.1077288591E+04        0.1000000000E+02        0.3000000000E+03        0.0000000000E+00
      0.0000000000E+00
      0.2419568224E-02        0.5616608942E-02        0.0000000000E+00        0.0000000000E+00        0.2757604068E-02        0.1077189089E+04        0.1000000000E+02        0.3000000000E+03        0.0000000000E+00
      0.0000000000E+00
      0.8688438749E-03        0.7757180355E-01        0.0000000000E+00        0.0000000000E+00        0.2745888844E-02        0.1072612830E+04        0.1000000000E+02        0.3000000000E+03        0.0000000000E+00
      0.0000000000E+00
      0.2426182432E-02        0.7241298290E-02        0.0000000000E+00        0.0000000000E+00        0.2757342821E-02        0.1077087039E+04        0.1000000000E+02        0.3000000000E+03        0.0000000000E+00
      0.0000000000E+00
      0.2423280256E-02        0.8837011197E-02        0.0000000000E+00        0.0000000000E+00        0.2757086089E-02        0.1076986753E+04        0.1000000000E+02        0.3000000000E+03        0.0000000000E+00
      0.0000000000E+00
      0.2426098815E-02        0.1203005556E-01        0.0000000000E+00        0.0000000000E+00        0.2756571933E-02        0.1076785911E+04        0.1000000000E+02        0.3000000000E+03        0.0000000000E+00
      0.0000000000E+00
      0.2423483008E-02        0.1362645380E-01        0.0000000000E+00        0.0000000000E+00        0.2756314659E-02        0.1076685414E+04        0.1000000000E+02        0.3000000000E+03        0.0000000000E+00
      0.0000000000E+00
      0.2422837702E-02        0.1522496533E-01        0.0000000000E+00        0.0000000000E+00        0.2756056900E-02        0.1076584727E+04        0.1000000000E+02        0.3000000000E+03        0.0000000000E+00
      0.0000000000E+00
      0.2423216983E-02        0.1842363973E-01        0.0000000000E+00        0.0000000000E+00        0.2755540681E-02        0.1076383079E+04        0.1000000000E+02        0.3000000000E+03        0.0000000000E+00
      0.0000000000E+00
      0.2423727868E-02        0.2002199280E-01        0.0000000000E+00        0.0000000000E+00        0.2755282513E-02        0.1076282232E+04        0.1000000000E+02        0.3000000000E+03        0.0000000000E+00
      0.0000000000E+00
      0.2426041163E-02        0.2162128747E-01        0.0000000000E+00        0.0000000000E+00        0.2755024048E-02        0.1076181269E+04        0.1000000000E+02        0.3000000000E+03        0.0000000000E+00
      0.0000000000E+00
      0.2422163308E-02        0.2322009588E-01        0.0000000000E+00        0.0000000000E+00        0.2754765515E-02        0.1076080279E+04        0.1000000000E+02        0.3000000000E+03        0.0000000000E+00
      0.0000000000E+00
      0.2425522260E-02        0.1043148015E-01        0.0000000000E+00        0.0000000000E+00        0.2756829413E-02        0.1076886490E+04        0.1000000000E+02        0.3000000000E+03        0.0000000000E+00
      0.0000000000E+00
      0.2424744389E-02        0.1682424947E-01        0.0000000000E+00        0.0000000000E+00        0.2755798872E-02        0.1076483934E+04        0.1000000000E+02        0.3000000000E+03        0.0000000000E+00
      0.0000000000E+00
      0.2423953852E-02        0.2481860083E-01        0.0000000000E+00        0.0000000000E+00        0.2754506886E-02        0.1075979252E+04        0.1000000000E+02        0.3000000000E+03        0.0000000000E+00
      0.0000000000E+00
      0.2422562892E-02        0.2641633384E-01        0.0000000000E+00        0.0000000000E+00        0.2754248236E-02        0.1075878217E+04        0.1000000000E+02        0.3000000000E+03        0.0000000000E+00
      0.0000000000E+00
      0.2421581867E-02        0.2801374693E-01        0.0000000000E+00        0.0000000000E+00        0.2753989493E-02        0.1075777146E+04        0.1000000000E+02        0.3000000000E+03        0.0000000000E+00
      0.0000000000E+00
      0.2423374582E-02        0.3121087964E-01        0.0000000000E+00        0.0000000000E+00        0.2753471193E-02        0.1075574685E+04        0.1000000000E+02        0.3000000000E+03        0.0000000000E+00
      0.0000000000E+00
      0.2421954247E-02        0.3280862914E-01        0.0000000000E+00        0.0000000000E+00        0.2753211956E-02        0.1075473420E+04        0.1000000000E+02        0.3000000000E+03        0.0000000000E+00
      0.0000000000E+00
      0.2424229535E-02        0.3440632802E-01        0.0000000000E+00        0.0000000000E+00        0.2752952581E-02        0.1075372102E+04        0.1000000000E+02        0.3000000000E+03        0.0000000000E+00
      0.0000000000E+00
      0.2421910646E-02        0.3600465244E-01        0.0000000000E+00        0.0000000000E+00        0.2752692957E-02        0.1075270686E+04        0.1000000000E+02        0.3000000000E+03        0.0000000000E+00
      0.0000000000E+00
      0.2420116277E-02        0.3760551485E-01        0.0000000000E+00        0.0000000000E+00        0.2752432774E-02        0.1075169052E+04        0.1000000000E+02        0.3000000000E+03        0.0000000000E+00
      0.0000000000E+00
      0.2422014509E-02        0.3920333161E-01        0.0000000000E+00        0.0000000000E+00        0.2752172939E-02        0.1075067554E+04        0.1000000000E+02        0.3000000000E+03        0.0000000000E+00
      0.0000000000E+00
      0.2420116277E-02        0.4239448515E-01        0.0000000000E+00        0.0000000000E+00        0.2751653555E-02        0.1074864670E+04        0.1000000000E+02        0.3000000000E+03        0.0000000000E+00
      0.0000000000E+00
      0.2421310208E-02        0.2961315994E-01        0.0000000000E+00        0.0000000000E+00        0.2753730279E-02        0.1075675890E+04        0.1000000000E+02        0.3000000000E+03        0.0000000000E+00
      0.0000000000E+00
      0.2422014509E-02        0.4079666839E-01        0.0000000000E+00        0.0000000000E+00        0.2751913685E-02        0.1074966283E+04        0.1000000000E+02        0.3000000000E+03        0.0000000000E+00
      0.0000000000E+00
      0.2421910646E-02        0.4399534756E-01        0.0000000000E+00        0.0000000000E+00        0.2751392782E-02        0.1074762805E+04        0.1000000000E+02        0.3000000000E+03        0.0000000000E+00
      0.0000000000E+00
      0.2424229535E-02        0.4559367198E-01        0.0000000000E+00        0.0000000000E+00        0.2751132273E-02        0.1074661044E+04        0.1000000000E+02        0.3000000000E+03        0.0000000000E+00
      0.0000000000E+00
      0.2421954247E-02        0.4719137086E-01        0.0000000000E+00        0.0000000000E+00        0.2750871719E-02        0.1074559265E+04        0.1000000000E+02        0.3000000000E+03        0.0000000000E+00
      0.0000000000E+00
      0.2423374582E-02        0.4878912036E-01        0.0000000000E+00        0.0000000000E+00        0.2750611008E-02        0.1074457425E+04        0.1000000000E+02        0.3000000000E+03        0.0000000000E+00
      0.0000000000E+00
      0.2421310208E-02        0.5038684006E-01        0.0000000000E+00        0.0000000000E+00        0.2750350154E-02        0.1074355529E+04        0.1000000000E+02        0.3000000000E+03        0.0000000000E+00
      0.0000000000E+00
      0.2421581867E-02        0.5198625307E-01        0.0000000000E+00        0.0000000000E+00        0.2750088875E-02        0.1074253467E+04        0.1000000000E+02        0.3000000000E+03        0.0000000000E+00
      0.0000000000E+00
      0.2422562892E-02        0.5358366616E-01        0.0000000000E+00        0.0000000000E+00        0.2749827773E-02        0.1074151474E+04        0.1000000000E+02        0.3000000000E+03        0.0000000000E+00
      0.0000000000E+00
      0.2422163308E-02        0.5677990412E-01        0.0000000000E+00        0.0000000000E+00        0.2749304892E-02        0.1073947224E+04        0.1000000000E+02        0.3000000000E+03        0.0000000000E+00
      0.0000000000E+00
      0.2426041163E-02        0.5837871253E-01        0.0000000000E+00        0.0000000000E+00        0.2749043115E-02        0.1073844967E+04        0.1000000000E+02        0.3000000000E+03        0.0000000000E+00
      0.0000000000E+00
      0.2423216983E-02        0.6157636027E-01        0.0000000000E+00        0.0000000000E+00        0.2748519107E-02        0.1073640276E+04        0.1000000000E+02        0.3000000000E+03        0.0000000000E+00
      0.0000000000E+00
      0.2424744389E-02        0.6317575053E-01        0.0000000000E+00        0.0000000000E+00        0.2748256784E-02        0.1073537806E+04        0.1000000000E+02        0.3000000000E+03        0.0000000000E+00
      0.0000000000E+00
      0.2423727868E-02        0.5997800720E-01        0.0000000000E+00        0.0000000000E+00        0.2748781109E-02        0.1073742621E+04        0.1000000000E+02        0.3000000000E+03        0.0000000000E+00
      0.0000000000E+00
      0.2423483008E-02        0.6637354620E-01        0.0000000000E+00        0.0000000000E+00        0.2747731851E-02        0.1073332754E+04        0.1000000000E+02        0.3000000000E+03        0.0000000000E+00
      0.0000000000E+00
      0.2426098815E-02        0.6796994444E-01        0.0000000000E+00        0.0000000000E+00        0.2747469569E-02        0.1073230300E+04        0.1000000000E+02        0.3000000000E+03        0.0000000000E+00
      0.0000000000E+00
      0.2425522260E-02        0.6956851985E-01        0.0000000000E+00        0.0000000000E+00        0.2747206779E-02        0.1073127648E+04        0.1000000000E+02        0.3000000000E+03        0.0000000000E+00
      0.0000000000E+00
      0.2423280256E-02        0.7116298880E-01        0.0000000000E+00        0.0000000000E+00        0.2746944513E-02        0.1073025200E+04        0.1000000000E+02        0.3000000000E+03        0.0000000000E+00
      0.0000000000E+00
      0.2426182432E-02        0.7275870171E-01        0.0000000000E+00        0.0000000000E+00        0.2746681893E-02        0.1072922614E+04        0.1000000000E+02        0.3000000000E+03        0.0000000000E+00
      0.0000000000E+00
      0.2422837702E-02        0.6477503467E-01        0.0000000000E+00        0.0000000000E+00        0.2747994329E-02        0.1073435285E+04        0.1000000000E+02        0.3000000000E+03        0.0000000000E+00
      0.0000000000E+00
      0.2454579942E-02        0.7596841904E-01        0.0000000000E+00        0.0000000000E+00        0.2746153184E-02        0.1072716088E+04        0.1000000000E+02        0.3000000000E+03        0.0000000000E+00
      0.0000000000E+00
      0.2441003053E-02        0.7755948565E-01        0.0000000000E+00        0.0000000000E+00        0.2745890875E-02        0.1072613623E+04        0.1000000000E+02        0.3000000000E+03        0.0000000000E+00
      0.0000000000E+00
      0.2419568224E-02        0.7438339106E-01        0.0000000000E+00        0.0000000000E+00        0.2746414348E-02        0.1072818105E+04        0.1000000000E+02        0.3000000000E+03        0.0000000000E+00
      0.0000000000E+00
      0.4011398591E-02        0.8778932119E-03        0.0000000000E+00        0.0000000000E+00        0.2758365197E-02        0.1077486405E+04        0.1000000000E+02        0.3000000000E+03        0.0000000000E+00
      0.0000000000E+00
      0.4027181578E-02        0.2445431264E-02        0.0000000000E+00        0.0000000000E+00        0.2758113559E-02        0.1077388109E+04        0.1000000000E+02        0.3000000000E+03        0.0000000000E+00
      0.0000000000E+00
      0.4046493561E-02        0.4044951123E-02        0.0000000000E+00        0.0000000000E+00        0.2757856646E-02        0.1077287752E+04        0.1000000000E+02        0.3000000000E+03        0.0000000000E+00
      0.0000000000E+00
      0.4002290574E-02        0.5634279406E-02        0.0000000000E+00        0.0000000000E+00        0.2757601227E-02        0.1077187979E+04        0.1000000000E+02        0.3000000000E+03        0.0000000000E+00
      0.0000000000E+00
      0.2428447938E-02        0.7913289306E-01        0.0000000000E+00        0.0000000000E+00        0.2745631330E-02        0.1072512238E+04        0.1000000000E+02        0.3000000000E+03        0.0000000000E+00
      0.0000000000E+00
      0.4019736022E-02        0.8849675264E-02        0.0000000000E+00        0.0000000000E+00        0.2757084051E-02        0.1076985957E+04        0.1000000000E+02        0.3000000000E+03        0.0000000000E+00
      0.0000000000E+00
      0.4018064507E-02        0.1044448972E-01        0.0000000000E+00        0.0000000000E+00        0.2756827318E-02        0.1076885671E+04        0.1000000000E+02        0.3000000000E+03        0.0000000000E+00
      0.0000000000E+00
      0.4018873847E-02        0.1203948216E-01        0.0000000000E+00        0.0000000000E+00        0.2756570414E-02        0.1076785318E+04        0.1000000000E+02        0.3000000000E+03        0.0000000000E+00
      0.0000000000E+00
      0.4019165848E-02        0.1363472866E-01        0.0000000000E+00        0.0000000000E+00        0.2756313325E-02        0.1076684893E+04        0.1000000000E+02        0.3000000000E+03        0.0000000000E+00
      0.0000000000E+00
      0.4018273044E-02        0.1523089894E-01        0.0000000000E+00        0.0000000000E+00        0.2756055943E-02        0.1076584353E+04        0.1000000000E+02        0.3000000000E+03        0.0000000000E+00
      0.0000000000E+00
      0.4017703166E-02        0.1842470126E-01        0.0000000000E+00        0.0000000000E+00        0.2755540510E-02        0.1076383012E+04        0.1000000000E+02        0.3000000000E+03        0.0000000000E+00
      0.0000000000E+00
      0.4017820003E-02        0.2002181890E-01        0.0000000000E+00        0.0000000000E+00        0.2755282541E-02        0.1076282243E+04        0.1000000000E+02        0.3000000000E+03        0.0000000000E+00
      0.0000000000E+00
      0.4018957852E-02        0.2161989163E-01        0.0000000000E+00        0.0000000000E+00        0.2755024273E-02        0.1076181357E+04        0.1000000000E+02        0.3000000000E+03        0.0000000000E+00
      0.0000000000E+00
      0.4016422767E-02        0.2321809754E-01        0.0000000000E+00        0.0000000000E+00        0.2754765839E-02        0.1076080406E+04        0.1000000000E+02        0.3000000000E+03        0.0000000000E+00
      0.0000000000E+00
      0.4017286541E-02        0.2481599538E-01        0.0000000000E+00        0.0000000000E+00        0.2754507308E-02        0.1075979417E+04        0.1000000000E+02        0.3000000000E+03        0.0000000000E+00
      0.0000000000E+00
      0.4016974925E-02        0.2641385495E-01        0.0000000000E+00        0.0000000000E+00        0.2754248638E-02        0.1075878374E+04        0.1000000000E+02        0.3000000000E+03        0.0000000000E+00
      0.0000000000E+00
      0.4016704146E-02        0.2961067700E-01        0.0000000000E+00        0.0000000000E+00        0.2753730681E-02        0.1075676047E+04        0.1000000000E+02        0.3000000000E+03        0.0000000000E+00
      0.0000000000E+00
      0.4017172081E-02        0.3120934861E-01        0.0000000000E+00        0.0000000000E+00        0.2753471441E-02        0.1075574782E+04        0.1000000000E+02        0.3000000000E+03        0.0000000000E+00
      0.0000000000E+00
      0.4015495139E-02        0.3280745553E-01        0.0000000000E+00        0.0000000000E+00        0.2753212147E-02        0.1075473495E+04        0.1000000000E+02        0.3000000000E+03        0.0000000000E+00
      0.0000000000E+00
      0.4017579246E-02        0.3440563772E-01        0.0000000000E+00        0.0000000000E+00        0.2752952693E-02        0.1075372146E+04        0.1000000000E+02        0.3000000000E+03        0.0000000000E+00
      0.0000000000E+00
      0.4016919216E-02        0.3600437913E-01        0.0000000000E+00        0.0000000000E+00        0.2752693002E-02        0.1075270704E+04        0.1000000000E+02        0.3000000000E+03        0.0000000000E+00
      0.0000000000E+00
      0.4014990565E-02        0.3760364359E-01        0.0000000000E+00        0.0000000000E+00        0.2752433078E-02        0.1075169171E+04        0.1000000000E+02        0.3000000000E+03        0.0000000000E+00
      0.0000000000E+00
      0.4015691714E-02        0.4079837168E-01        0.0000000000E+00        0.0000000000E+00        0.2751913408E-02        0.1074966175E+04        0.1000000000E+02        0.3000000000E+03        0.0000000000E+00
      0.0000000000E+00
      0.4014990565E-02        0.4239635641E-01        0.0000000000E+00        0.0000000000E+00        0.2751653250E-02        0.1074864551E+04        0.1000000000E+02        0.3000000000E+03        0.0000000000E+00
      0.0000000000E+00
      0.4016919216E-02        0.4399562087E-01        0.0000000000E+00        0.0000000000E+00        0.2751392737E-02        0.1074762788E+04        0.1000000000E+02        0.3000000000E+03        0.0000000000E+00
      0.0000000000E+00
      0.2423953852E-02        0.5518139917E-01        0.0000000000E+00        0.0000000000E+00        0.2749566470E-02        0.1074049403E+04        0.1000000000E+02        0.3000000000E+03        0.0000000000E+00
      0.0000000000E+00
      0.4015495139E-02        0.4719254447E-01        0.0000000000E+00        0.0000000000E+00        0.2750871528E-02        0.1074559190E+04        0.1000000000E+02        0.3000000000E+03        0.0000000000E+00
      0.0000000000E+00